 Gaussian 09, Revision D.01,
 Gaussian 09:  ES64L-G09RevD.01 24-Apr-2013

 ----------------------------------------------------------------------
 #p sp geom=allcheck scrf(solvent=dichloromethane,smd) wb97xd genecp te
 mperature=313 integral(grid=ultrafine)
 ----------------------------------------------------------------------

 Structure from the checkpoint file:  "biphep_step3-sp.chk"
 -----
 title
 -----
 Charge =  0 Multiplicity = 1

                         Standard orientation:
 ---------------------------------------------------------------------
 Center     Atomic      Atomic             Coordinates (Angstroms)
 Number     Number       Type             X           Y           Z
 ---------------------------------------------------------------------
      1         15           0        0.957362    1.919798    0.485159
      2          6           0        1.246384    1.652120    2.267698
      3          6           0        2.244223    2.326318    2.977153
      4          6           0        2.357193    2.149340    4.352329
      5          6           0        1.460748    1.321664    5.030242
      6          6           0        0.445441    0.673259    4.330924
      7          6           0        0.338300    0.836637    2.951211
      8          1           0       -0.458458    0.337621    2.390353
      9          1           0       -0.267580    0.035699    4.858659
     10          1           0        1.551998    1.188534    6.110773
     11          1           0        3.149924    2.662971    4.901054
     12          1           0        2.939859    2.984644    2.451101
     13          6           0        2.507132    1.975689   -0.485152
     14          6           0        2.417913    2.653435   -1.712576
     15          6           0        3.470175    2.640734   -2.619497
     16          6           0        4.637858    1.944311   -2.312824
     17          6           0        4.725829    1.245797   -1.116011
     18          6           0        3.664400    1.225038   -0.199591
     19          6           0        3.811035    0.383002    1.015203
     20          6           0        4.849381    0.677185    1.903667
     21          6           0        5.038156   -0.065531    3.065065
     22          6           0        4.186236   -1.129620    3.339852
     23          6           0        3.172874   -1.461318    2.442331
     24          6           0        2.970637   -0.722904    1.272720
     25         15           0        1.706804   -1.223884    0.010442
     26          6           0        1.123715   -2.839273    0.613211
     27          6           0        1.392824   -4.030859   -0.062741
     28          6           0        0.920992   -5.239202    0.448071
     29          6           0        0.183880   -5.266309    1.628904
     30          6           0       -0.110692   -4.075251    2.292109
     31          6           0        0.342822   -2.864999    1.778218
     32          1           0        0.089166   -1.930537    2.285039
     33          1           0       -0.719782   -4.087855    3.198971
     34          1           0       -0.187941   -6.215470    2.021212
     35          1           0        1.125030   -6.166806   -0.091386
     36          1           0        1.953129   -4.011876   -0.998896
     37          6           0        2.825052   -1.535164   -1.396664
     38          6           0        2.507618   -1.019861   -2.653443
     39          6           0        3.396913   -1.176644   -3.714570
     40          6           0        4.600548   -1.850851   -3.525768
     41          6           0        4.918392   -2.374890   -2.270627
     42          6           0        4.036321   -2.214854   -1.206728
     43          1           0        4.294394   -2.607890   -0.219956
     44          6           0       -0.957601    3.830946    1.042941
     45          6           0       -1.454418    5.116314    1.230708
     46          6           0       -0.657315    6.224576    0.944853
     47          6           0        0.644700    6.042510    0.483753
     48          6           0        1.149055    4.756138    0.296270
     49          6           0        0.344817    3.642562    0.560995
     50          1           0        2.174590    4.625813   -0.054650
     51          1           0        1.277830    6.906751    0.269555
     52          1           0       -1.051823    7.233645    1.085777
     53          1           0       -2.475325    5.250405    1.594519
     54          1           0       -1.588138    2.966112    1.260675
     55          1           0        5.860084   -2.908376   -2.120353
     56          1           0        5.296398   -1.973873   -4.359521
     57          1           0        3.137602   -0.770404   -4.694709
     58          1           0        1.559817   -0.504985   -2.804474
     59          1           0        2.541400   -2.325519    2.651160
     60          1           0        4.315534   -1.722127    4.248324
     61          1           0        5.845817    0.191127    3.754260
     62          1           0        5.501597    1.525889    1.682784
     63          1           0        5.616413    0.655153   -0.891355
     64          1           0        5.470349    1.921756   -3.019100
     65          1           0        3.372646    3.169896   -3.569814
     66          1           0        1.502632    3.194033   -1.965113
     67         46           0       -0.195217    0.193506   -0.392503
     68         17           0       -0.553553    0.461094   -3.897312
     69         16           0       -1.413717   -2.033556   -2.421587
     70          9           0       -4.819913    0.215288    2.019891
     71          9           0       -5.141969   -2.245776    3.009858
     72          9           0       -3.743184   -4.335617    1.980587
     73          9           0       -1.991372   -3.937305   -0.010326
     74          8           0       -0.065180   -2.447872   -2.794310
     75          8           0       -2.547116   -2.943797   -2.572194
     76          8           0       -5.365928    3.402670   -1.539140
     77          7           0       -1.388325   -1.397879   -0.934803
     78          6           0       -1.876557    1.256758   -0.724897
     79          6           0       -1.887322    2.417451   -1.510619
     80          1           0       -0.952190    2.801225   -1.923677
     81          6           0       -3.055714    3.114051   -1.783216
     82          1           0       -3.052034    4.020450   -2.391698
     83          6           0       -4.270740    2.662834   -1.254500
     84          6           0       -6.603559    2.984338   -1.039529
     85          1           0       -7.344205    3.723918   -1.370149
     86          1           0       -6.609857    2.940860    0.064390
     87          1           0       -6.893122    1.992351   -1.430228
     88          6           0       -4.292130    1.495407   -0.493216
     89          1           0       -5.233207    1.107737   -0.108019
     90          6           0       -3.105131    0.779845   -0.237665
     91          6           0       -3.208656   -0.532432    0.440191
     92          6           0       -4.105635   -0.775258    1.481904
     93          6           0       -4.296455   -2.050615    2.006668
     94          6           0       -3.584645   -3.121199    1.475101
     95          6           0       -2.672565   -2.904453    0.447786
     96          6           0       -2.438228   -1.616922   -0.048715
     97          6           0       -1.858993   -0.678332   -3.552859
     98          1           0       -2.148490   -1.177136   -4.486705
     99          1           0       -2.705932   -0.136708   -3.111308
 ---------------------------------------------------------------------

 SCF Done:  E(RwB97XD) =  -4276.09213068     A.U. after   20 cycles

 The electronic state is 1-A.
 Alpha  occ. eigenvalues -- -101.69564 -89.20949 -77.26287 -77.24928 -24.84370
 Alpha  occ. eigenvalues --  -24.84274 -24.83677 -24.82955 -19.27677 -19.23181
 Alpha  occ. eigenvalues --  -19.23041 -14.43251 -10.39016 -10.38778 -10.38630
 Alpha  occ. eigenvalues --  -10.37999 -10.35696 -10.34458 -10.34129 -10.32408
 Alpha  occ. eigenvalues --  -10.31675 -10.31623 -10.31363 -10.31171 -10.31048
 Alpha  occ. eigenvalues --  -10.30869 -10.30771 -10.30300 -10.30293 -10.30066
 Alpha  occ. eigenvalues --  -10.29990 -10.29954 -10.29953 -10.29844 -10.29713
 Alpha  occ. eigenvalues --  -10.29706 -10.29640 -10.29621 -10.29613 -10.29549
 Alpha  occ. eigenvalues --  -10.29515 -10.29506 -10.29500 -10.29474 -10.29409
 Alpha  occ. eigenvalues --  -10.29401 -10.29353 -10.29346 -10.29341 -10.29274
 Alpha  occ. eigenvalues --  -10.29264 -10.29211 -10.29000 -10.29000 -10.28994
 Alpha  occ. eigenvalues --  -10.28942 -10.28825 -10.28761 -10.28123 -10.27921
 Alpha  occ. eigenvalues --  -10.27862 -10.27719  -9.58127  -8.21027  -7.32784
 Alpha  occ. eigenvalues --   -7.31912  -7.31865  -6.70669  -6.69380  -6.15869
 Alpha  occ. eigenvalues --   -6.15794  -6.15752  -4.85366  -4.85337  -4.85063
 Alpha  occ. eigenvalues --   -4.84084  -4.84054  -4.83728  -3.58387  -2.26860
 Alpha  occ. eigenvalues --   -2.26569  -2.23621  -1.36816  -1.35820  -1.34726
 Alpha  occ. eigenvalues --   -1.34352  -1.20048  -1.17197  -1.09157  -1.02389
 Alpha  occ. eigenvalues --   -0.98870  -0.97038  -0.96995  -0.96561  -0.96373
 Alpha  occ. eigenvalues --   -0.96336  -0.95915  -0.95791  -0.94959  -0.89235
 Alpha  occ. eigenvalues --   -0.88849  -0.88512  -0.88005  -0.85791  -0.85712
 Alpha  occ. eigenvalues --   -0.85299  -0.85076  -0.85007  -0.84848  -0.84769
 Alpha  occ. eigenvalues --   -0.84552  -0.84387  -0.84012  -0.83400  -0.82891
 Alpha  occ. eigenvalues --   -0.80484  -0.78278  -0.76740  -0.75547  -0.75258
 Alpha  occ. eigenvalues --   -0.74938  -0.72752  -0.71147  -0.70760  -0.70402
 Alpha  occ. eigenvalues --   -0.70300  -0.70104  -0.69934  -0.69684  -0.69490
 Alpha  occ. eigenvalues --   -0.69285  -0.69024  -0.68399  -0.68007  -0.66402
 Alpha  occ. eigenvalues --   -0.66342  -0.65914  -0.65074  -0.64350  -0.62877
 Alpha  occ. eigenvalues --   -0.62034  -0.61685  -0.61554  -0.61318  -0.61053
 Alpha  occ. eigenvalues --   -0.60837  -0.60142  -0.59556  -0.59240  -0.58227
 Alpha  occ. eigenvalues --   -0.57999  -0.57431  -0.56987  -0.56596  -0.56151
 Alpha  occ. eigenvalues --   -0.55818  -0.55695  -0.55342  -0.55296  -0.55175
 Alpha  occ. eigenvalues --   -0.54919  -0.54693  -0.54399  -0.54325  -0.54129
 Alpha  occ. eigenvalues --   -0.54072  -0.53727  -0.53651  -0.53590  -0.53376
 Alpha  occ. eigenvalues --   -0.53100  -0.52788  -0.52505  -0.52097  -0.51349
 Alpha  occ. eigenvalues --   -0.51247  -0.51176  -0.51058  -0.50971  -0.50751
 Alpha  occ. eigenvalues --   -0.50676  -0.50576  -0.50200  -0.50164  -0.49789
 Alpha  occ. eigenvalues --   -0.49203  -0.48889  -0.48393  -0.47928  -0.47528
 Alpha  occ. eigenvalues --   -0.47387  -0.47009  -0.46700  -0.46592  -0.45942
 Alpha  occ. eigenvalues --   -0.45750  -0.45311  -0.44931  -0.44839  -0.44598
 Alpha  occ. eigenvalues --   -0.43901  -0.43436  -0.43291  -0.43124  -0.43025
 Alpha  occ. eigenvalues --   -0.42905  -0.42740  -0.42642  -0.42420  -0.41730
 Alpha  occ. eigenvalues --   -0.41496  -0.41304  -0.41057  -0.40745  -0.40668
 Alpha  occ. eigenvalues --   -0.40413  -0.39541  -0.39183  -0.38463  -0.38053
 Alpha  occ. eigenvalues --   -0.37286  -0.36993  -0.36766  -0.36138  -0.35769
 Alpha  occ. eigenvalues --   -0.35366  -0.35071  -0.34671  -0.34173  -0.33777
 Alpha  occ. eigenvalues --   -0.33499  -0.33152  -0.33125  -0.32978  -0.32864
 Alpha  occ. eigenvalues --   -0.32129  -0.31930  -0.31220  -0.30709  -0.30367
 Alpha  occ. eigenvalues --   -0.28699  -0.27721
 Alpha virt. eigenvalues --    0.00481   0.01658   0.02235   0.02669   0.02911
 Alpha virt. eigenvalues --    0.03298   0.03878   0.04464   0.04893   0.05000
 Alpha virt. eigenvalues --    0.05656   0.05896   0.06157   0.06726   0.06928

 Mulliken charges:
               1
     1  P    0.415548
     2  C    0.027069
     3  C   -0.165394
     4  C   -0.184270
     5  C   -0.102768
     6  C   -0.227713
     7  C   -0.147049
     8  H    0.262908
     9  H    0.149963
    10  H    0.158528
    11  H    0.155598
    12  H    0.174638
    13  C    0.036557
    14  C   -0.291485
    15  C   -0.141847
    16  C   -0.152586
    17  C   -0.266152
    18  C    0.156924
    19  C    0.190601
    20  C   -0.304140
    21  C   -0.121811
    22  C   -0.220176
    23  C   -0.102062
    24  C   -0.171889
    25  P    0.416872
    26  C    0.117398
    27  C   -0.172358
    28  C   -0.164703
    29  C   -0.135896
    30  C   -0.176994
    31  C   -0.264021
    32  H    0.165046
    33  H    0.151283
    34  H    0.156026
    35  H    0.154998
    36  H    0.181440
    37  C   -0.017316
    38  C    0.003732
    39  C   -0.249451
    40  C   -0.087826
    41  C   -0.179124
    42  C   -0.236786
    43  H    0.177273
    44  C   -0.180449
    45  C   -0.227056
    46  C   -0.109817
    47  C   -0.191481
    48  C   -0.200100
    49  C    0.001848
    50  H    0.188544
    51  H    0.159285
    52  H    0.161275
    53  H    0.155522
    54  H    0.228050
    55  H    0.156115
    56  H    0.157218
    57  H    0.141173
    58  H    0.132868
    59  H    0.181279
    60  H    0.153042
    61  H    0.153917
    62  H    0.157842
    63  H    0.171893
    64  H    0.156765
    65  H    0.157977
    66  H    0.201528
    67  Pd  -0.300290
    68  Cl  -0.109628
    69  S    0.825536
    70  F   -0.218698
    71  F   -0.204407
    72  F   -0.202057
    73  F   -0.197884
    74  O   -0.521406
    75  O   -0.522492
    76  O   -0.304190
    77  N   -0.339657
    78  C   -0.204083
    79  C   -0.151032
    80  H    0.195527
    81  C   -0.333329
    82  H    0.133052
    83  C    0.414546
    84  C   -0.226438
    85  H    0.156661
    86  H    0.135845
    87  H    0.136013
    88  C   -0.470328
    89  H    0.175357
    90  C    0.170989
    91  C    0.016958
    92  C    0.285425
    93  C    0.153468
    94  C    0.221939
    95  C    0.116057
    96  C    0.052275
    97  C   -0.162090
    98  H    0.206359
    99  H    0.196177
 Sum of Mulliken charges =   0.00000

 Dipole moment (field-independent basis, Debye):
    X=             10.0096    Y=              8.3276    Z=              4.8037  Tot=             13.8787
 Quadrupole moment (field-independent basis, Debye-Ang):
   XX=           -362.1065   YY=           -393.5734   ZZ=           -381.2560
   XY=            -11.5035   XZ=              2.1969   YZ=            -14.2939

 Normal termination of Gaussian 09 at Sat Apr  6 23:09:28 2024.
