 Gaussian 09, Revision D.01,
 Gaussian 09:  ES64L-G09RevD.01 24-Apr-2013

 ----------------------------------------------------------------------
 #p sp geom=allcheck scrf(solvent=dichloromethane,smd) wb97xd genecp te
 mperature=373 integral(grid=ultrafine)
 ----------------------------------------------------------------------

 Structure from the checkpoint file:  "dppeG6_step1-wb97xd-sp.chk"
 -----
 title
 -----
 Charge =  0 Multiplicity = 1

                         Standard orientation:
 ---------------------------------------------------------------------
 Center     Atomic      Atomic             Coordinates (Angstroms)
 Number     Number       Type             X           Y           Z
 ---------------------------------------------------------------------
      1         46           0       -0.831404    0.092656   -0.387371
      2         16           0        0.817501    1.960999   -2.436898
      3         15           0       -2.364491   -0.817464    0.979295
      4         15           0       -1.032073    2.016610    0.921373
      5          8           0       -0.426390    2.708510   -2.204483
      6          8           0        2.082978    2.696039   -2.485312
      7          7           0        0.849843    0.760832   -1.353981
      8          6           0       -0.518860   -1.578708   -1.482879
      9          6           0       -1.543163   -2.192120   -2.210034
     10          1           0       -2.579027   -1.873061   -2.067344
     11          6           0       -1.273659   -3.203825   -3.134172
     12          1           0       -2.093431   -3.666490   -3.690469
     13          6           0        0.040050   -3.608977   -3.348913
     14          6           0        1.071925   -3.011009   -2.630842
     15          1           0        2.101644   -3.316000   -2.823072
     16          6           0        0.812740   -2.008151   -1.683630
     17          6           0        1.955723   -1.352621   -0.993563
     18          6           0        3.020602   -2.044083   -0.379186
     19          6           0        4.132013   -1.360388    0.115214
     20          6           0        4.195903    0.026241    0.015435
     21          6           0        3.133055    0.741828   -0.517352
     22          6           0        1.997099    0.069325   -0.985976
     23          6           0        0.639721    1.145496   -4.011793
     24          1           0        0.561420    1.923363   -4.782576
     25          1           0        1.530900    0.526237   -4.175492
     26          6           0       -1.773803    1.406352    2.507953
     27          1           0       -1.006279    0.831102    3.050071
     28          1           0       -2.085418    2.245040    3.149166
     29          6           0       -2.949539    0.506816    2.142909
     30          1           0       -3.727947    1.084820    1.618828
     31          1           0       -3.416839    0.053555    3.029905
     32          6           0        0.539504    2.824703    1.316368
     33          6           0        1.387598    2.290699    2.295868
     34          1           0        1.060965    1.455942    2.920305
     35          6           0        2.671559    2.801668    2.463132
     36          1           0        3.334113    2.368793    3.214790
     37          6           0        3.122986    3.837071    1.645335
     38          1           0        4.140796    4.216136    1.758884
     39          6           0        2.286157    4.361612    0.661828
     40          1           0        2.645217    5.149309   -0.003493
     41          6           0        0.998188    3.859972    0.492165
     42          1           0        0.364557    4.236372   -0.313492
     43          6           0       -2.209076    3.311509    0.429314
     44          6           0       -2.996713    3.113393   -0.709120
     45          1           0       -2.813675    2.238227   -1.336670
     46          6           0       -3.966782    4.052005   -1.056937
     47          1           0       -4.575175    3.897337   -1.950944
     48          6           0       -4.143337    5.194762   -0.279051
     49          1           0       -4.898578    5.933782   -0.557354
     50          6           0       -3.347214    5.404494    0.848092
     51          1           0       -3.476533    6.306638    1.450633
     52          6           0       -2.383160    4.465249    1.203758
     53          1           0       -1.753184    4.635250    2.081596
     54          6           0       -3.875550   -1.527993    0.261272
     55          6           0       -4.774576   -0.671751   -0.390382
     56          1           0       -4.595562    0.407232   -0.406434
     57          6           0       -5.889676   -1.191623   -1.040581
     58          1           0       -6.587440   -0.517623   -1.542688
     59          6           0       -6.108809   -2.569669   -1.059545
     60          1           0       -6.981627   -2.977136   -1.574917
     61          6           0       -5.207539   -3.425193   -0.429330
     62          1           0       -5.368311   -4.505407   -0.452767
     63          6           0       -4.091768   -2.909663    0.228068
     64          1           0       -3.379274   -3.584738    0.706679
     65          6           0       -1.678333   -2.086307    2.089591
     66          6           0       -2.436245   -2.588314    3.158405
     67          1           0       -3.464162   -2.248883    3.313980
     68          6           0       -1.888640   -3.535021    4.017964
     69          1           0       -2.483421   -3.924502    4.847487
     70          6           0       -0.582612   -3.987880    3.817638
     71          1           0       -0.154604   -4.731834    4.493812
     72          6           0        0.171633   -3.498401    2.754584
     73          1           0        1.187382   -3.858363    2.581802
     74          6           0       -0.373827   -2.548853    1.890534
     75          1           0        0.206868   -2.171597    1.046724
     76          1           0       -0.261868    0.521468   -3.978110
     77          1           0        0.269165   -4.386563   -4.081362
     78          1           0        3.150195    1.829886   -0.564828
     79          1           0        4.940539   -1.912236    0.594214
     80          6           0        5.374643    0.747711    0.601854
     81          6           0        3.026178   -3.541286   -0.180596
     82          9           0        5.267114    0.861121    1.938095
     83          9           0        5.505742    1.983630    0.118004
     84          9           0        6.519791    0.097112    0.369457
     85          9           0        1.808658   -4.042201    0.051841
     86          9           0        3.778310   -3.882091    0.877512
     87          9           0        3.535233   -4.205132   -1.228423
 ---------------------------------------------------------------------

 SCF Done:  E(RwB97XD) =  -3595.69743452     A.U. after   24 cycles

 The electronic state is 1-A.
 Alpha  occ. eigenvalues --  -89.20197 -77.25633 -77.24177 -24.84389 -24.84273
 Alpha  occ. eigenvalues --  -24.84259 -24.84241 -24.84238 -24.83929 -19.22275
 Alpha  occ. eigenvalues --  -19.22161 -14.42270 -10.53962 -10.53670 -10.33902
 Alpha  occ. eigenvalues --  -10.32080 -10.31592 -10.31440 -10.30947 -10.30786
 Alpha  occ. eigenvalues --  -10.30509 -10.30397 -10.30293 -10.30250 -10.30217
 Alpha  occ. eigenvalues --  -10.30200 -10.30027 -10.30009 -10.29850 -10.29839
 Alpha  occ. eigenvalues --  -10.29760 -10.29715 -10.29703 -10.29638 -10.29634
 Alpha  occ. eigenvalues --  -10.29603 -10.29588 -10.29543 -10.29506 -10.29368
 Alpha  occ. eigenvalues --  -10.29358 -10.29295 -10.29288 -10.29210 -10.29190
 Alpha  occ. eigenvalues --  -10.29036 -10.28970 -10.28863 -10.28257 -10.28077
 Alpha  occ. eigenvalues --  -10.27943 -10.27795 -10.27435  -8.20271  -6.70034
 Alpha  occ. eigenvalues --   -6.68720  -6.15123  -6.15043  -6.14982  -4.84719
 Alpha  occ. eigenvalues --   -4.84693  -4.84442  -4.83398  -4.83394  -4.83071
 Alpha  occ. eigenvalues --   -3.58304  -2.26784  -2.26385  -2.23600  -1.42722
 Alpha  occ. eigenvalues --   -1.42594  -1.33602  -1.33452  -1.33329  -1.33059
 Alpha  occ. eigenvalues --   -1.19049  -1.08026  -1.01844  -0.97221  -0.96879
 Alpha  occ. eigenvalues --   -0.96721  -0.96479  -0.96017  -0.94868  -0.90828
 Alpha  occ. eigenvalues --   -0.90653  -0.87734  -0.87372  -0.85770  -0.85473
 Alpha  occ. eigenvalues --   -0.85370  -0.85054  -0.84990  -0.84864  -0.84632
 Alpha  occ. eigenvalues --   -0.84556  -0.83019  -0.82877  -0.80739  -0.79284
 Alpha  occ. eigenvalues --   -0.77614  -0.74399  -0.74213  -0.73684  -0.71379
 Alpha  occ. eigenvalues --   -0.70950  -0.70816  -0.70369  -0.70346  -0.69816
 Alpha  occ. eigenvalues --   -0.69621  -0.69499  -0.69286  -0.69247  -0.69019
 Alpha  occ. eigenvalues --   -0.68750  -0.67894  -0.67381  -0.66311  -0.64744
 Alpha  occ. eigenvalues --   -0.63625  -0.62303  -0.61656  -0.61150  -0.60510
 Alpha  occ. eigenvalues --   -0.60232  -0.59238  -0.58938  -0.58050  -0.57215
 Alpha  occ. eigenvalues --   -0.56904  -0.56605  -0.56238  -0.55939  -0.55782
 Alpha  occ. eigenvalues --   -0.55481  -0.55411  -0.55025  -0.54930  -0.54487
 Alpha  occ. eigenvalues --   -0.54442  -0.54358  -0.54008  -0.53839  -0.53447
 Alpha  occ. eigenvalues --   -0.53152  -0.52879  -0.52805  -0.52623  -0.52459
 Alpha  occ. eigenvalues --   -0.51759  -0.51663  -0.51369  -0.51302  -0.50905
 Alpha  occ. eigenvalues --   -0.50818  -0.50760  -0.50428  -0.50378  -0.50174
 Alpha  occ. eigenvalues --   -0.49672  -0.49504  -0.49181  -0.49062  -0.48886
 Alpha  occ. eigenvalues --   -0.48328  -0.47797  -0.47327  -0.47132  -0.46984
 Alpha  occ. eigenvalues --   -0.46648  -0.46234  -0.45816  -0.45631  -0.45545
 Alpha  occ. eigenvalues --   -0.45076  -0.44606  -0.43440  -0.43205  -0.43137
 Alpha  occ. eigenvalues --   -0.42909  -0.42585  -0.42174  -0.41982  -0.41750
 Alpha  occ. eigenvalues --   -0.41278  -0.40955  -0.40875  -0.40674  -0.39469
 Alpha  occ. eigenvalues --   -0.38706  -0.38072  -0.37658  -0.36593  -0.35928
 Alpha  occ. eigenvalues --   -0.35805  -0.35266  -0.35035  -0.34446  -0.34252
 Alpha  occ. eigenvalues --   -0.33930  -0.33808  -0.33593  -0.33283  -0.32744
 Alpha  occ. eigenvalues --   -0.31772  -0.31453  -0.30759  -0.29806  -0.27958
 Alpha virt. eigenvalues --    0.01311   0.02020   0.02481   0.03107   0.03275
 Alpha virt. eigenvalues --    0.03600   0.04288   0.04673   0.04874   0.05580
 Alpha virt. eigenvalues --    0.06325   0.07219   0.07340   0.08940   0.10701

 Mulliken charges:
               1
     1  Pd  -0.085604
     2  S    0.851285
     3  P    0.309929
     4  P    0.443950
     5  O   -0.554108
     6  O   -0.546657
     7  N   -0.324180
     8  C   -0.115009
     9  C   -0.232659
    10  H    0.198015
    11  C   -0.211726
    12  H    0.142500
    13  C   -0.147750
    14  C   -0.314815
    15  H    0.159933
    16  C   -0.066297
    17  C    0.341385
    18  C   -0.035005
    19  C   -0.325107
    20  C    0.150500
    21  C   -0.469052
    22  C    0.151993
    23  C   -0.401304
    24  H    0.177365
    25  H    0.172397
    26  C   -0.306853
    27  H    0.181475
    28  H    0.174339
    29  C   -0.350702
    30  H    0.193762
    31  H    0.176019
    32  C    0.077280
    33  C   -0.219763
    34  H    0.164439
    35  C   -0.175170
    36  H    0.156756
    37  C   -0.155173
    38  H    0.155794
    39  C   -0.149543
    40  H    0.155038
    41  C   -0.233725
    42  H    0.186149
    43  C   -0.048394
    44  C   -0.141972
    45  H    0.240432
    46  C   -0.187169
    47  H    0.155779
    48  C   -0.120485
    49  H    0.162188
    50  C   -0.166582
    51  H    0.160752
    52  C   -0.225791
    53  H    0.178823
    54  C    0.009178
    55  C   -0.190918
    56  H    0.194852
    57  C   -0.218775
    58  H    0.158895
    59  C   -0.113215
    60  H    0.163795
    61  C   -0.184854
    62  H    0.161721
    63  C   -0.171928
    64  H    0.191179
    65  C   -0.154643
    66  C   -0.188669
    67  H    0.180476
    68  C   -0.182906
    69  H    0.161703
    70  C   -0.085331
    71  H    0.162714
    72  C   -0.289475
    73  H    0.155456
    74  C    0.044083
    75  H    0.211290
    76  H    0.180394
    77  H    0.147411
    78  H    0.206963
    79  H    0.169001
    80  C    0.539615
    81  C    0.579956
    82  F   -0.194848
    83  F   -0.187435
    84  F   -0.190369
    85  F   -0.186473
    86  F   -0.199118
    87  F   -0.187409
 Sum of Mulliken charges =   0.00000

 Dipole moment (field-independent basis, Debye):
    X=            -12.2782    Y=             -1.3586    Z=              6.3255  Tot=             13.8785
 Quadrupole moment (field-independent basis, Debye-Ang):
   XX=           -326.3712   YY=           -337.8539   ZZ=           -321.4791
   XY=             -2.9856   XZ=              1.8374   YZ=              4.9484

 Normal termination of Gaussian 09 at Thu Nov  9 20:12:46 2023.
