 Gaussian 09, Revision D.01,
 Gaussian 09:  ES64L-G09RevD.01 24-Apr-2013

 ----------------------------------------------------------------------
 #p sp geom=allcheck scrf(solvent=dichloromethane,smd) wb97xd genecp te
 mperature=313 integral(grid=ultrafine)
 ----------------------------------------------------------------------

 Structure from the checkpoint file:  "dppe_step1-sp.chk"
 -----
 title
 -----
 Charge =  0 Multiplicity = 1

                         Standard orientation:
 ---------------------------------------------------------------------
 Center     Atomic      Atomic             Coordinates (Angstroms)
 Number     Number       Type             X           Y           Z
 ---------------------------------------------------------------------
      1         46           0       -0.122257   -0.493469   -0.176671
      2         17           0       -0.474126   -1.500253   -3.298496
      3         16           0       -1.417559    1.259143   -2.536001
      4         15           0        0.505361   -2.090559    1.267311
      5         15           0       -2.226762   -0.592164    0.840100
      6          9           0        3.401153    3.210561    0.705440
      7          9           0        2.006129    5.381070    1.398323
      8          9           0       -0.621046    5.595062    0.733709
      9          9           0       -1.843963    3.610394   -0.591371
     10          8           0       -2.681986    0.563164   -2.303201
     11          8           0       -1.395560    2.571531   -3.175897
     12          8           0        5.582886    0.404831   -2.469160
     13          7           0       -0.529702    1.242495   -1.194134
     14          6           0        1.772415   -0.222674   -0.867345
     15          6           0        2.543231   -1.254655   -1.418654
     16          1           0        2.148533   -2.272230   -1.447018
     17          6           0        3.807908   -1.030556   -1.947889
     18          1           0        4.401435   -1.843745   -2.370970
     19          6           0        4.344552    0.261163   -1.944038
     20          6           0        6.159218    1.678655   -2.481901
     21          1           0        7.156846    1.570160   -2.926888
     22          1           0        6.265468    2.094180   -1.463679
     23          1           0        5.574673    2.391463   -3.091062
     24          6           0        3.589221    1.310754   -1.423542
     25          1           0        3.978065    2.327429   -1.437804
     26          6           0        2.307799    1.079721   -0.887911
     27          6           0        1.532681    2.247846   -0.406102
     28          6           0        2.124069    3.283815    0.320094
     29          6           0        1.416456    4.422537    0.695127
     30          6           0        0.074487    4.536095    0.346309
     31          6           0       -0.549920    3.505462   -0.346770
     32          6           0        0.149546    2.345928   -0.703377
     33          6           0       -0.489684    0.221185   -3.704197
     34          1           0       -0.984789    0.353634   -4.674945
     35          1           0        0.542060    0.594486   -3.727191
     36          6           0       -1.894547   -1.452804    2.453945
     37          1           0       -1.382678   -0.735017    3.114906
     38          1           0       -2.835405   -1.742441    2.945453
     39          6           0       -1.006594   -2.658247    2.177983
     40          1           0       -1.522314   -3.380324    1.523568
     41          1           0       -0.724798   -3.191163    3.098770
     42          6           0       -2.872158    1.040905    1.295886
     43          6           0       -2.083157    1.853125    2.123174
     44          1           0       -1.124158    1.487175    2.502476
     45          6           0       -2.496337    3.144495    2.434534
     46          1           0       -1.872808    3.776633    3.070822
     47          6           0       -3.690798    3.638769    1.911184
     48          1           0       -4.006217    4.658582    2.142452
     49          6           0       -4.463644    2.842482    1.069390
     50          1           0       -5.385566    3.237179    0.636568
     51          6           0       -4.056691    1.547700    0.754489
     52          1           0       -4.646059    0.938237    0.066860
     53          6           0       -3.600901   -1.564084    0.151617
     54          6           0       -3.462469   -2.128362   -1.120056
     55          1           0       -2.571134   -1.910521   -1.710635
     56          6           0       -4.480526   -2.925855   -1.641399
     57          1           0       -4.368603   -3.358338   -2.638223
     58          6           0       -5.639141   -3.155147   -0.902962
     59          1           0       -6.437356   -3.776759   -1.315964
     60          6           0       -5.787101   -2.582738    0.361830
     61          1           0       -6.699668   -2.752653    0.938068
     62          6           0       -4.771641   -1.790579    0.889031
     63          1           0       -4.897559   -1.335431    1.875472
     64          6           0        1.246557   -3.608315    0.598578
     65          6           0        0.499336   -4.318754   -0.352295
     66          1           0       -0.500370   -3.972770   -0.632779
     67          6           0        1.040257   -5.442360   -0.968625
     68          1           0        0.453344   -5.990531   -1.709005
     69          6           0        2.335609   -5.855935   -0.653309
     70          1           0        2.763304   -6.733248   -1.144066
     71          6           0        3.087523   -5.140734    0.276270
     72          1           0        4.107271   -5.452712    0.513057
     73          6           0        2.548290   -4.017150    0.901520
     74          1           0        3.148825   -3.446906    1.613052
     75          6           0        1.607504   -1.479684    2.582341
     76          6           0        1.897355   -2.262304    3.709694
     77          1           0        1.486653   -3.271559    3.802561
     78          6           0        2.721692   -1.762729    4.713956
     79          1           0        2.945531   -2.377906    5.588606
     80          6           0        3.262386   -0.480039    4.602637
     81          1           0        3.910326   -0.091891    5.392193
     82          6           0        2.977639    0.301999    3.485745
     83          1           0        3.400953    1.303799    3.382796
     84          6           0        2.151477   -0.194611    2.478920
     85          1           0        1.935446    0.408231    1.595476
 ---------------------------------------------------------------------

 SCF Done:  E(RwB97XD) =  -3892.62317405     A.U. after   24 cycles

 The electronic state is 1-A.
 Alpha  occ. eigenvalues -- -101.69789 -89.21105 -77.25689 -77.24295 -24.84348
 Alpha  occ. eigenvalues --  -24.84212 -24.83623 -24.83022 -19.27536 -19.23355
 Alpha  occ. eigenvalues --  -19.23083 -14.43173 -10.39008 -10.38672 -10.38603
 Alpha  occ. eigenvalues --  -10.37937 -10.35806 -10.34618 -10.33918 -10.32327
 Alpha  occ. eigenvalues --  -10.31248 -10.30944 -10.30915 -10.30394 -10.30349
 Alpha  occ. eigenvalues --  -10.30340 -10.30219 -10.30218 -10.30049 -10.29960
 Alpha  occ. eigenvalues --  -10.29940 -10.29905 -10.29873 -10.29782 -10.29738
 Alpha  occ. eigenvalues --  -10.29681 -10.29653 -10.29643 -10.29573 -10.29560
 Alpha  occ. eigenvalues --  -10.29502 -10.29499 -10.29342 -10.29338 -10.29165
 Alpha  occ. eigenvalues --  -10.29060 -10.29002 -10.28876 -10.27983 -10.27637
 Alpha  occ. eigenvalues --  -10.27578 -10.27446  -9.58343  -8.21167  -7.32998
 Alpha  occ. eigenvalues --   -7.32131  -7.32081  -6.70095  -6.68814  -6.16017
 Alpha  occ. eigenvalues --   -6.15933  -6.15891  -4.84779  -4.84749  -4.84509
 Alpha  occ. eigenvalues --   -4.83497  -4.83481  -4.83173  -3.58429  -2.26886
 Alpha  occ. eigenvalues --   -2.26536  -2.23743  -1.36762  -1.35759  -1.34657
 Alpha  occ. eigenvalues --   -1.34308  -1.20128  -1.17051  -1.09193  -1.02508
 Alpha  occ. eigenvalues --   -0.97273  -0.97193  -0.96751  -0.96551  -0.96384
 Alpha  occ. eigenvalues --   -0.96032  -0.94757  -0.90829  -0.88766  -0.87762
 Alpha  occ. eigenvalues --   -0.85887  -0.85765  -0.85534  -0.85450  -0.85086
 Alpha  occ. eigenvalues --   -0.85060  -0.84932  -0.84570  -0.83862  -0.83293
 Alpha  occ. eigenvalues --   -0.80596  -0.78120  -0.77673  -0.75371  -0.74880
 Alpha  occ. eigenvalues --   -0.74400  -0.71286  -0.70948  -0.70458  -0.70405
 Alpha  occ. eigenvalues --   -0.70156  -0.69818  -0.69561  -0.69317  -0.69251
 Alpha  occ. eigenvalues --   -0.68284  -0.66414  -0.66291  -0.65825  -0.64828
 Alpha  occ. eigenvalues --   -0.64271  -0.62818  -0.61763  -0.61671  -0.61415
 Alpha  occ. eigenvalues --   -0.61212  -0.60870  -0.60445  -0.59355  -0.59105
 Alpha  occ. eigenvalues --   -0.58229  -0.57551  -0.57013  -0.56176  -0.55861
 Alpha  occ. eigenvalues --   -0.55742  -0.55659  -0.55441  -0.55219  -0.54989
 Alpha  occ. eigenvalues --   -0.54593  -0.54517  -0.54382  -0.54259  -0.54051
 Alpha  occ. eigenvalues --   -0.53834  -0.53613  -0.53252  -0.53187  -0.52899
 Alpha  occ. eigenvalues --   -0.52591  -0.52063  -0.51414  -0.51309  -0.50921
 Alpha  occ. eigenvalues --   -0.50880  -0.50794  -0.50578  -0.50342  -0.50254
 Alpha  occ. eigenvalues --   -0.49177  -0.48861  -0.48247  -0.47571  -0.47402
 Alpha  occ. eigenvalues --   -0.47155  -0.46992  -0.46953  -0.46438  -0.46150
 Alpha  occ. eigenvalues --   -0.45807  -0.45424  -0.44916  -0.43955  -0.43678
 Alpha  occ. eigenvalues --   -0.43400  -0.43298  -0.43058  -0.42925  -0.42675
 Alpha  occ. eigenvalues --   -0.42367  -0.41847  -0.41610  -0.41505  -0.40919
 Alpha  occ. eigenvalues --   -0.40841  -0.40600  -0.40221  -0.39625  -0.39330
 Alpha  occ. eigenvalues --   -0.38343  -0.38043  -0.37248  -0.36740  -0.35924
 Alpha  occ. eigenvalues --   -0.35296  -0.34853  -0.34523  -0.34355  -0.34285
 Alpha  occ. eigenvalues --   -0.33958  -0.33794  -0.33548  -0.33309  -0.33071
 Alpha  occ. eigenvalues --   -0.31593  -0.31011  -0.30513  -0.28467  -0.27514
 Alpha virt. eigenvalues --    0.01498   0.02354   0.02876   0.02911   0.03569
 Alpha virt. eigenvalues --    0.04308   0.04361   0.04823   0.05365   0.05720
 Alpha virt. eigenvalues --    0.06993   0.07133   0.08076   0.08502   0.08767

 Mulliken charges:
               1
     1  Pd  -0.222017
     2  Cl  -0.103849
     3  S    0.810602
     4  P    0.325878
     5  P    0.412473
     6  F   -0.222185
     7  F   -0.205779
     8  F   -0.201672
     9  F   -0.200152
    10  O   -0.525441
    11  O   -0.519410
    12  O   -0.306021
    13  N   -0.347934
    14  C   -0.159670
    15  C   -0.202095
    16  H    0.196265
    17  C   -0.326284
    18  H    0.133318
    19  C    0.406822
    20  C   -0.224930
    21  H    0.155875
    22  H    0.135707
    23  H    0.134809
    24  C   -0.485568
    25  H    0.171575
    26  C    0.152217
    27  C    0.080972
    28  C    0.286615
    29  C    0.153746
    30  C    0.198823
    31  C    0.144689
    32  C    0.019069
    33  C   -0.168419
    34  H    0.206114
    35  H    0.196298
    36  C   -0.328977
    37  H    0.186550
    38  H    0.174169
    39  C   -0.324961
    40  H    0.188441
    41  H    0.177075
    42  C    0.070018
    43  C   -0.215307
    44  H    0.201327
    45  C   -0.211923
    46  H    0.153956
    47  C   -0.116548
    48  H    0.157588
    49  C   -0.174192
    50  H    0.156322
    51  C   -0.182803
    52  H    0.185298
    53  C   -0.061723
    54  C   -0.052613
    55  H    0.148208
    56  C   -0.205497
    57  H    0.152538
    58  C   -0.114868
    59  H    0.161870
    60  C   -0.158928
    61  H    0.161030
    62  C   -0.246831
    63  H    0.181401
    64  C   -0.016273
    65  C   -0.202827
    66  H    0.209972
    67  C   -0.203641
    68  H    0.158975
    69  C   -0.114058
    70  H    0.164038
    71  C   -0.183743
    72  H    0.161416
    73  C   -0.164880
    74  H    0.192117
    75  C   -0.107607
    76  C   -0.208576
    77  H    0.182603
    78  C   -0.171882
    79  H    0.162865
    80  C   -0.080600
    81  H    0.163647
    82  C   -0.287520
    83  H    0.157437
    84  C    0.010617
    85  H    0.216857
 Sum of Mulliken charges =   0.00000

 Dipole moment (field-independent basis, Debye):
    X=              0.8371    Y=            -10.6982    Z=              8.0135  Tot=             13.3929
 Quadrupole moment (field-independent basis, Debye-Ang):
   XX=           -320.5982   YY=           -332.2043   ZZ=           -325.8719
   XY=             12.5901   XZ=             -7.2155   YZ=              1.5348

 Normal termination of Gaussian 09 at Tue Nov 28 17:42:42 2023.
