 Gaussian 09, Revision D.01,
 Gaussian 09:  ES64L-G09RevD.01 24-Apr-2013

 ----------------------------------------------------------------------
 #p sp geom=allcheck scrf(solvent=dichloromethane,smd) wb97xd genecp te
 mperature=313 integral(grid=ultrafine)
 ----------------------------------------------------------------------

 Structure from the checkpoint file:  "dcype_step1-sp.chk"
 -----
 title
 -----
 Charge =  0 Multiplicity = 1

                         Standard orientation:
 ---------------------------------------------------------------------
 Center     Atomic      Atomic             Coordinates (Angstroms)
 Number     Number       Type             X           Y           Z
 ---------------------------------------------------------------------
      1         46           0        0.199041    0.478309   -0.111073
      2         17           0        0.459537    1.836462   -3.360227
      3         16           0        1.070015   -1.064035   -2.921884
      4         15           0       -0.511722    1.802921    1.563012
      5         15           0        2.284828    0.408495    0.965972
      6          9           0       -3.544256   -2.994803    0.281396
      7          9           0       -2.270665   -5.263901    0.886964
      8          9           0        0.366406   -5.561626    0.293220
      9          9           0        1.726167   -3.547096   -0.847891
     10          8           0        2.428638   -0.529396   -2.994064
     11          8           0        0.740742   -2.316587   -3.600969
     12          8           0       -5.393591    0.220682   -2.808316
     13          7           0        0.573763   -1.118467   -1.386224
     14          6           0       -1.653474    0.445097   -0.946735
     15          6           0       -2.301736    1.562385   -1.491102
     16          1           0       -1.822694    2.543063   -1.443568
     17          6           0       -3.541010    1.471760   -2.113670
     18          1           0       -4.037626    2.349659   -2.532147
     19          6           0       -4.182535    0.230987   -2.209704
     20          6           0       -6.069351   -0.998470   -2.929847
     21          1           0       -5.507825   -1.722142   -3.547278
     22          1           0       -7.025952   -0.781524   -3.422208
     23          1           0       -6.269920   -1.458163   -1.945489
     24          6           0       -3.544828   -0.905259   -1.710651
     25          1           0       -4.005545   -1.886412   -1.812864
     26          6           0       -2.283685   -0.803551   -1.094353
     27          6           0       -1.590859   -2.046881   -0.681715
     28          6           0       -2.256579   -3.100621   -0.055964
     29          6           0       -1.612985   -4.292050    0.271654
     30          6           0       -0.266790   -4.447270   -0.040513
     31          6           0        0.423936   -3.400976   -0.643718
     32          6           0       -0.206455   -2.192310   -0.950126
     33          6           0        0.045311    0.169542   -3.776487
     34          1           0        0.244755    0.010093   -4.844010
     35          1           0       -1.008221   -0.019489   -3.532804
     36          6           0        2.193406    1.644944    2.346092
     37          1           0        2.913327    1.397527    3.142164
     38          1           0        2.527478    2.597285    1.904394
     39          6           0        0.779817    1.779245    2.897297
     40          1           0        0.672800    2.666052    3.541661
     41          1           0        0.530194    0.907368    3.521945
     42          6           0        3.838109    0.888615    0.081932
     43          6           0        4.493499   -0.286619   -0.649279
     44          6           0        3.500508    2.026808   -0.889266
     45          1           0        4.536833    1.265956    0.854172
     46          6           0        5.698699    0.172842   -1.465350
     47          1           0        3.755697   -0.741568   -1.327974
     48          1           0        4.810675   -1.058815    0.067645
     49          6           0        4.715027    2.466278   -1.697886
     50          1           0        2.719731    1.668010   -1.579491
     51          1           0        3.074497    2.885381   -0.344014
     52          6           0        5.329556    1.285439   -2.438591
     53          1           0        6.117519   -0.689282   -2.008397
     54          1           0        6.493488    0.530062   -0.783395
     55          1           0        4.416335    3.255968   -2.406250
     56          1           0        5.468502    2.916106   -1.024556
     57          1           0        6.216146    1.607437   -3.008615
     58          1           0        4.596497    0.895411   -3.164122
     59          6           0        2.612973   -1.244124    1.718040
     60          6           0        3.810358   -1.310680    2.665274
     61          6           0        1.371509   -1.843366    2.381774
     62          1           0        2.827419   -1.857632    0.823732
     63          6           0        4.074711   -2.751485    3.097389
     64          1           0        3.599945   -0.698385    3.560998
     65          1           0        4.710881   -0.882452    2.198115
     66          6           0        1.627432   -3.284442    2.809628
     67          1           0        1.109989   -1.245807    3.274020
     68          1           0        0.509547   -1.786899    1.699711
     69          6           0        2.839789   -3.385812    3.728518
     70          1           0        4.925863   -2.785402    3.796525
     71          1           0        4.374442   -3.338671    2.211310
     72          1           0        0.731644   -3.694585    3.303262
     73          1           0        1.792081   -3.901050    1.909719
     74          1           0        3.039727   -4.438260    3.985397
     75          1           0        2.616278   -2.870974    4.681026
     76          6           0       -2.028994    1.251131    2.478310
     77          6           0       -3.339980    1.691669    1.821855
     78          6           0       -1.986536   -0.271887    2.648848
     79          1           0       -1.959896    1.723572    3.477626
     80          6           0       -4.551499    1.149726    2.573965
     81          1           0       -3.365888    1.322815    0.785311
     82          1           0       -3.396659    2.790170    1.767825
     83          6           0       -3.213662   -0.811030    3.374741
     84          1           0       -1.925271   -0.727511    1.646840
     85          1           0       -1.073198   -0.576694    3.181640
     86          6           0       -4.500565   -0.367762    2.692361
     87          1           0       -5.471418    1.467766    2.057974
     88          1           0       -4.590126    1.595070    3.585305
     89          1           0       -3.156993   -1.910583    3.415549
     90          1           0       -3.210527   -0.456333    4.421734
     91          1           0       -5.377580   -0.741917    3.244349
     92          1           0       -4.544920   -0.816706    1.684748
     93          6           0       -0.788667    3.563030    1.095045
     94          6           0       -1.043988    4.521660    2.256857
     95          6           0        0.329569    4.075469    0.184154
     96          1           0       -1.709324    3.507455    0.486711
     97          6           0       -1.358591    5.923687    1.739179
     98          1           0       -0.145699    4.569703    2.897723
     99          1           0       -1.865836    4.157115    2.894038
    100          6           0        0.012545    5.475269   -0.329273
    101          1           0        1.277310    4.105292    0.751044
    102          1           0        0.489249    3.372810   -0.649870
    103          6           0       -0.259837    6.442605    0.817552
    104          1           0       -1.509090    6.611785    2.586470
    105          1           0       -2.315611    5.895437    1.187985
    106          1           0        0.840178    5.841380   -0.957285
    107          1           0       -0.874726    5.423014   -0.985659
    108          1           0       -0.527499    7.437273    0.426906
    109          1           0        0.667812    6.579413    1.402771
 ---------------------------------------------------------------------

 SCF Done:  E(RwB97XD) =  -3907.22023455     A.U. after   23 cycles

 The electronic state is 1-A.
 Alpha  occ. eigenvalues -- -101.69220 -89.20664 -77.23827 -77.22269 -24.84428
 Alpha  occ. eigenvalues --  -24.84327 -24.83605 -24.83458 -19.27574 -19.22992
 Alpha  occ. eigenvalues --  -19.22720 -14.42623 -10.39084 -10.38866 -10.38611
 Alpha  occ. eigenvalues --  -10.38008 -10.35411 -10.34300 -10.33993 -10.32341
 Alpha  occ. eigenvalues --  -10.31258 -10.29562 -10.29421 -10.29371 -10.29247
 Alpha  occ. eigenvalues --  -10.29198 -10.28746 -10.28721 -10.28017 -10.27983
 Alpha  occ. eigenvalues --  -10.27780 -10.27670 -10.27607 -10.27583 -10.27468
 Alpha  occ. eigenvalues --  -10.27413 -10.27311 -10.27195 -10.27193 -10.27095
 Alpha  occ. eigenvalues --  -10.27030 -10.27000 -10.26973 -10.26948 -10.26920
 Alpha  occ. eigenvalues --  -10.26892 -10.26867 -10.26625 -10.26583 -10.26429
 Alpha  occ. eigenvalues --  -10.26292 -10.26076  -9.57776  -8.20743  -7.32438
 Alpha  occ. eigenvalues --   -7.31558  -7.31514  -6.68278  -6.66853  -6.15583
 Alpha  occ. eigenvalues --   -6.15508  -6.15471  -4.82950  -4.82906  -4.82713
 Alpha  occ. eigenvalues --   -4.81540  -4.81485  -4.81223  -3.57374  -2.25824
 Alpha  occ. eigenvalues --   -2.25476  -2.22702  -1.36885  -1.35865  -1.34755
 Alpha  occ. eigenvalues --   -1.34422  -1.19763  -1.17116  -1.08825  -1.02057
 Alpha  occ. eigenvalues --   -0.96854  -0.96073  -0.94777  -0.94196  -0.93717
 Alpha  occ. eigenvalues --   -0.93046  -0.92555  -0.89154  -0.88729  -0.86054
 Alpha  occ. eigenvalues --   -0.85753  -0.84429  -0.84006  -0.83843  -0.83795
 Alpha  occ. eigenvalues --   -0.83621  -0.83363  -0.83227  -0.83201  -0.82811
 Alpha  occ. eigenvalues --   -0.80276  -0.78124  -0.76373  -0.75179  -0.74850
 Alpha  occ. eigenvalues --   -0.73251  -0.70805  -0.70381  -0.70051  -0.69911
 Alpha  occ. eigenvalues --   -0.69827  -0.69200  -0.69096  -0.68854  -0.68576
 Alpha  occ. eigenvalues --   -0.68292  -0.66262  -0.65906  -0.65213  -0.64735
 Alpha  occ. eigenvalues --   -0.64441  -0.64084  -0.63673  -0.63136  -0.62871
 Alpha  occ. eigenvalues --   -0.61838  -0.61483  -0.61436  -0.60760  -0.59195
 Alpha  occ. eigenvalues --   -0.58300  -0.57238  -0.57059  -0.56957  -0.56636
 Alpha  occ. eigenvalues --   -0.56095  -0.55935  -0.55902  -0.55693  -0.55358
 Alpha  occ. eigenvalues --   -0.55262  -0.54456  -0.54285  -0.53792  -0.53554
 Alpha  occ. eigenvalues --   -0.53245  -0.53130  -0.52567  -0.52436  -0.52167
 Alpha  occ. eigenvalues --   -0.52044  -0.51961  -0.51836  -0.51634  -0.51569
 Alpha  occ. eigenvalues --   -0.51372  -0.51280  -0.50948  -0.50638  -0.50290
 Alpha  occ. eigenvalues --   -0.49855  -0.49561  -0.49213  -0.48659  -0.47798
 Alpha  occ. eigenvalues --   -0.47376  -0.47323  -0.46926  -0.46628  -0.46530
 Alpha  occ. eigenvalues --   -0.46335  -0.46234  -0.46116  -0.45563  -0.45277
 Alpha  occ. eigenvalues --   -0.44745  -0.44621  -0.44123  -0.43929  -0.43670
 Alpha  occ. eigenvalues --   -0.43198  -0.42964  -0.42784  -0.42767  -0.42362
 Alpha  occ. eigenvalues --   -0.42243  -0.41930  -0.41880  -0.41635  -0.41598
 Alpha  occ. eigenvalues --   -0.41226  -0.40930  -0.40798  -0.40441  -0.40359
 Alpha  occ. eigenvalues --   -0.40246  -0.39387  -0.39227  -0.38962  -0.38856
 Alpha  occ. eigenvalues --   -0.38709  -0.38221  -0.38154  -0.37992  -0.37751
 Alpha  occ. eigenvalues --   -0.37639  -0.37317  -0.37263  -0.36692  -0.36245
 Alpha  occ. eigenvalues --   -0.36178  -0.35825  -0.35582  -0.34543  -0.34196
 Alpha  occ. eigenvalues --   -0.33611  -0.33323  -0.31366  -0.31228  -0.30514
 Alpha  occ. eigenvalues --   -0.28409  -0.27487
 Alpha virt. eigenvalues --    0.02399   0.04697   0.06031   0.06990   0.07732
 Alpha virt. eigenvalues --    0.08065   0.08680   0.09535   0.09911   0.10421
 Alpha virt. eigenvalues --    0.10796   0.11326   0.11656   0.12057   0.12611

 Mulliken charges:
               1
     1  Pd  -0.328952
     2  Cl  -0.107323
     3  S    0.827709
     4  P    0.381236
     5  P    0.438202
     6  F   -0.219959
     7  F   -0.203468
     8  F   -0.202508
     9  F   -0.210253
    10  O   -0.530805
    11  O   -0.528398
    12  O   -0.304986
    13  N   -0.384246
    14  C   -0.107357
    15  C   -0.232989
    16  H    0.196085
    17  C   -0.284769
    18  H    0.131262
    19  C    0.410624
    20  C   -0.225718
    21  H    0.136121
    22  H    0.156158
    23  H    0.135865
    24  C   -0.526570
    25  H    0.171061
    26  C    0.112496
    27  C    0.210911
    28  C    0.264746
    29  C    0.183038
    30  C    0.194937
    31  C    0.117097
    32  C   -0.020073
    33  C   -0.151646
    34  H    0.204267
    35  H    0.186638
    36  C   -0.374142
    37  H    0.170275
    38  H    0.179285
    39  C   -0.386044
    40  H    0.176669
    41  H    0.180089
    42  C   -0.088892
    43  C   -0.317096
    44  C   -0.249726
    45  H    0.123136
    46  C   -0.185904
    47  H    0.143403
    48  H    0.121238
    49  C   -0.197678
    50  H    0.098749
    51  H    0.119814
    52  C   -0.181857
    53  H    0.113448
    54  H    0.090427
    55  H    0.112915
    56  H    0.094430
    57  H    0.108185
    58  H    0.101827
    59  C   -0.087682
    60  C   -0.294661
    61  C   -0.290853
    62  H    0.138430
    63  C   -0.185648
    64  H    0.111848
    65  H    0.138923
    66  C   -0.216729
    67  H    0.111350
    68  H    0.152518
    69  C   -0.181857
    70  H    0.117333
    71  H    0.104115
    72  H    0.114719
    73  H    0.110169
    74  H    0.117500
    75  H    0.094305
    76  C   -0.057089
    77  C   -0.290152
    78  C   -0.180602
    79  H    0.130337
    80  C   -0.174091
    81  H    0.115486
    82  H    0.131904
    83  C   -0.190801
    84  H    0.032262
    85  H    0.119509
    86  C   -0.218322
    87  H    0.116825
    88  H    0.096096
    89  H    0.115824
    90  H    0.102227
    91  H    0.114274
    92  H    0.108216
    93  C   -0.091949
    94  C   -0.295045
    95  C   -0.311368
    96  H    0.120430
    97  C   -0.195952
    98  H    0.114248
    99  H    0.140487
   100  C   -0.197612
   101  H    0.114179
   102  H    0.159422
   103  C   -0.192344
   104  H    0.119299
   105  H    0.104045
   106  H    0.120445
   107  H    0.110607
   108  H    0.119035
   109  H    0.095404
 Sum of Mulliken charges =   0.00000

 Dipole moment (field-independent basis, Debye):
    X=             -1.0433    Y=              9.4845    Z=             11.3401  Tot=             14.8203
 Quadrupole moment (field-independent basis, Debye-Ang):
   XX=           -351.6220   YY=           -365.8336   ZZ=           -358.6506
   XY=              7.1064   XZ=             23.5862   YZ=              4.1942

 Normal termination of Gaussian 09 at Tue Nov 28 01:35:09 2023.
