 Gaussian 09, Revision D.01,
 Gaussian 09:  ES64L-G09RevD.01 24-Apr-2013

 ----------------------------------------------------------------------
 #p sp scrf(solvent=dichloromethane,smd) wb97xd genecp temperature=313
 integral(grid=ultrafine)
 ----------------------------------------------------------------------

 -----
 title
 -----
 Symbolic Z-matrix:
 Charge =  0 Multiplicity = 1

                         Standard orientation:
 ---------------------------------------------------------------------
 Center     Atomic      Atomic             Coordinates (Angstroms)
 Number     Number       Type             X           Y           Z
 ---------------------------------------------------------------------
      1         46           0        0.002768   -0.047465   -0.173803
      2         17           0       -0.222189   -0.141009   -3.587527
      3         16           0        1.060386    2.190879   -2.187843
      4         15           0       -1.175268   -1.665445    0.855189
      5         15           0       -1.873149    1.260622    0.426209
      6          9           0        5.110751   -0.628121    1.275553
      7          9           0        5.917256    1.725443    2.204911
      8          9           0        4.513911    3.985730    1.644177
      9          9           0        2.259964    3.848353    0.210086
     10          8           0       -0.310825    2.689006   -2.275392
     11          8           0        2.189594    3.063543   -2.497458
     12          8           0        4.509077   -3.884750   -2.021065
     13          7           0        1.271510    1.453595   -0.763900
     14          6           0        1.510245   -1.303912   -0.665680
     15          6           0        1.238140   -2.526470   -1.300205
     16          1           0        0.203913   -2.840801   -1.461237
     17          6           0        2.240744   -3.376355   -1.742021
     18          1           0        2.011773   -4.327315   -2.227080
     19          6           0        3.580362   -3.014627   -1.564293
     20          6           0        5.860791   -3.570092   -1.849247
     21          1           0        6.142180   -2.646476   -2.386428
     22          1           0        6.435810   -4.408121   -2.263972
     23          1           0        6.123852   -3.448232   -0.783187
     24          6           0        3.880555   -1.804182   -0.945438
     25          1           0        4.917504   -1.501790   -0.818212
     26          6           0        2.858321   -0.947867   -0.485390
     27          6           0        3.255380    0.337287    0.133836
     28          6           0        4.392878    0.445543    0.940771
     29          6           0        4.833604    1.665549    1.444197
     30          6           0        4.117058    2.821046    1.156209
     31          6           0        2.955628    2.736492    0.396424
     32          6           0        2.503557    1.512482   -0.115301
     33          6           0        1.203056    0.892191   -3.453657
     34          1           0        1.342834    1.428201   -4.401153
     35          1           0        2.080859    0.279628   -3.209008
     36          6           0       -2.375583    0.521554    2.033247
     37          6           0       -2.019587   -0.824139    2.248183
     38          6           0       -1.770076    3.039386    0.749022
     39          6           0       -2.837828    3.908002    0.500142
     40          1           0       -3.767193    3.523412    0.073157
     41          6           0       -2.702775    5.265377    0.783165
     42          1           0       -3.534063    5.945851    0.584273
     43          6           0       -1.505966    5.756072    1.305132
     44          1           0       -1.399364    6.823437    1.513076
     45          6           0       -0.438931    4.890941    1.544555
     46          1           0        0.510575    5.274134    1.923506
     47          6           0       -0.569084    3.533937    1.266590
     48          1           0        0.271847    2.855922    1.421175
     49          6           0       -3.317532    1.015513   -0.656930
     50          6           0       -3.170297    1.349999   -2.010906
     51          1           0       -2.231855    1.790012   -2.361363
     52          6           0       -4.217509    1.108364   -2.896085
     53          1           0       -4.099257    1.370311   -3.950204
     54          6           0       -5.402856    0.526268   -2.445699
     55          1           0       -6.217589    0.330063   -3.147131
     56          6           0       -5.546035    0.190020   -1.100743
     57          1           0       -6.469148   -0.272948   -0.744559
     58          6           0       -4.507771    0.436044   -0.204608
     59          1           0       -4.620588    0.161126    0.846358
     60          6           0       -2.553302   -2.369908   -0.106625
     61          6           0       -2.568945   -2.165054   -1.490107
     62          1           0       -1.754119   -1.608262   -1.959178
     63          6           0       -3.636484   -2.632334   -2.252877
     64          1           0       -3.648351   -2.454221   -3.330036
     65          6           0       -4.691726   -3.302736   -1.638175
     66          1           0       -5.532539   -3.662224   -2.236121
     67          6           0       -4.685107   -3.501431   -0.256863
     68          1           0       -5.518425   -4.016113    0.227193
     69          6           0       -3.622450   -3.032035    0.510071
     70          1           0       -3.635098   -3.165586    1.594741
     71          6           0       -0.258468   -3.048971    1.592055
     72          6           0        0.925926   -2.734185    2.272349
     73          1           0        1.251103   -1.692537    2.341109
     74          6           0        1.704963   -3.747257    2.818185
     75          1           0        2.632559   -3.496344    3.337189
     76          6           0        1.315288   -5.080667    2.677744
     77          1           0        1.936079   -5.877110    3.094763
     78          6           0        0.145048   -5.396964    1.992301
     79          1           0       -0.154488   -6.440344    1.869922
     80          6           0       -0.643810   -4.383859    1.446756
     81          1           0       -1.549771   -4.637249    0.892349
     82          6           0       -2.319842   -1.444548    3.461646
     83          6           0       -3.037116    1.227365    3.039336
     84          6           0       -3.339245    0.601183    4.248964
     85          6           0       -2.979643   -0.729039    4.461053
     86          1           0       -2.014755   -2.480346    3.633197
     87          1           0       -3.202150   -1.210496    5.416129
     88          1           0       -3.297194    2.277075    2.880553
     89          1           0       -3.846745    1.162093    5.037189
 ---------------------------------------------------------------------

 SCF Done:  E(RwB97XD) =  -4045.04276184     A.U. after   20 cycles

 The electronic state is 1-A.
 Alpha  occ. eigenvalues -- -101.69695 -89.21229 -77.26240 -77.24889 -24.84443
 Alpha  occ. eigenvalues --  -24.84300 -24.83641 -24.83268 -19.27593 -19.23464
 Alpha  occ. eigenvalues --  -19.23417 -14.43544 -10.39106 -10.38803 -10.38679
 Alpha  occ. eigenvalues --  -10.38177 -10.35856 -10.34656 -10.33973 -10.32351
 Alpha  occ. eigenvalues --  -10.31653 -10.31508 -10.31501 -10.30907 -10.30906
 Alpha  occ. eigenvalues --  -10.30626 -10.30473 -10.30374 -10.30360 -10.30294
 Alpha  occ. eigenvalues --  -10.30261 -10.30226 -10.30097 -10.30039 -10.29990
 Alpha  occ. eigenvalues --  -10.29927 -10.29803 -10.29666 -10.29654 -10.29625
 Alpha  occ. eigenvalues --  -10.29607 -10.29488 -10.29480 -10.29473 -10.29443
 Alpha  occ. eigenvalues --  -10.29304 -10.29264 -10.29130 -10.29123 -10.29045
 Alpha  occ. eigenvalues --  -10.29014 -10.28967 -10.27968 -10.27877 -10.27733
 Alpha  occ. eigenvalues --  -10.27690  -9.58254  -8.21312  -7.32913  -7.32035
 Alpha  occ. eigenvalues --   -7.31994  -6.70645  -6.69389  -6.16149  -6.16072
 Alpha  occ. eigenvalues --   -6.16046  -4.85328  -4.85305  -4.85059  -4.84100
 Alpha  occ. eigenvalues --   -4.84048  -4.83738  -3.58634  -2.27176  -2.26725
 Alpha  occ. eigenvalues --   -2.23853  -1.36916  -1.35913  -1.34779  -1.34433
 Alpha  occ. eigenvalues --   -1.20344  -1.17114  -1.09463  -1.02498  -0.98122
 Alpha  occ. eigenvalues --   -0.97205  -0.96966  -0.96598  -0.96471  -0.96414
 Alpha  occ. eigenvalues --   -0.95956  -0.94872  -0.89250  -0.88871  -0.88297
 Alpha  occ. eigenvalues --   -0.85898  -0.85688  -0.85501  -0.85464  -0.85369
 Alpha  occ. eigenvalues --   -0.85062  -0.84981  -0.84735  -0.84560  -0.83960
 Alpha  occ. eigenvalues --   -0.83381  -0.80625  -0.78197  -0.76685  -0.75978
 Alpha  occ. eigenvalues --   -0.75373  -0.74990  -0.71430  -0.70987  -0.70743
 Alpha  occ. eigenvalues --   -0.70410  -0.70324  -0.70168  -0.69691  -0.69436
 Alpha  occ. eigenvalues --   -0.69292  -0.69216  -0.68440  -0.66622  -0.66358
 Alpha  occ. eigenvalues --   -0.66015  -0.65299  -0.64467  -0.62909  -0.61891
 Alpha  occ. eigenvalues --   -0.61701  -0.61607  -0.61487  -0.61211  -0.60765
 Alpha  occ. eigenvalues --   -0.59688  -0.59297  -0.58632  -0.58302  -0.57783
 Alpha  occ. eigenvalues --   -0.57126  -0.56464  -0.56187  -0.55909  -0.55766
 Alpha  occ. eigenvalues --   -0.55302  -0.55264  -0.54967  -0.54744  -0.54617
 Alpha  occ. eigenvalues --   -0.54528  -0.54306  -0.53969  -0.53841  -0.53657
 Alpha  occ. eigenvalues --   -0.53467  -0.53301  -0.53092  -0.52719  -0.52294
 Alpha  occ. eigenvalues --   -0.51584  -0.51308  -0.51210  -0.51137  -0.50910
 Alpha  occ. eigenvalues --   -0.50770  -0.50561  -0.50433  -0.50364  -0.50103
 Alpha  occ. eigenvalues --   -0.49634  -0.48752  -0.48103  -0.47802  -0.47516
 Alpha  occ. eigenvalues --   -0.47257  -0.47106  -0.46681  -0.46646  -0.46258
 Alpha  occ. eigenvalues --   -0.45333  -0.45034  -0.44778  -0.43950  -0.43860
 Alpha  occ. eigenvalues --   -0.43347  -0.43250  -0.42937  -0.42872  -0.42665
 Alpha  occ. eigenvalues --   -0.42565  -0.42088  -0.42044  -0.41639  -0.41371
 Alpha  occ. eigenvalues --   -0.41019  -0.40917  -0.40354  -0.39837  -0.39221
 Alpha  occ. eigenvalues --   -0.38552  -0.38262  -0.37350  -0.36776  -0.36657
 Alpha  occ. eigenvalues --   -0.35658  -0.35390  -0.35008  -0.34757  -0.34709
 Alpha  occ. eigenvalues --   -0.34302  -0.34194  -0.33811  -0.33733  -0.33392
 Alpha  occ. eigenvalues --   -0.33234  -0.32967  -0.31442  -0.31044  -0.30431
 Alpha  occ. eigenvalues --   -0.28877  -0.27620
 Alpha virt. eigenvalues --    0.00802   0.01588   0.01682   0.02597   0.02991
 Alpha virt. eigenvalues --    0.03547   0.03943   0.04545   0.04709   0.05273
 Alpha virt. eigenvalues --    0.05719   0.06065   0.06465   0.07461   0.08057

 Mulliken charges:
               1
     1  Pd  -0.199368
     2  Cl  -0.099562
     3  S    0.840425
     4  P    0.425266
     5  P    0.495380
     6  F   -0.216247
     7  F   -0.203260
     8  F   -0.200377
     9  F   -0.203969
    10  O   -0.532752
    11  O   -0.519450
    12  O   -0.304870
    13  N   -0.349620
    14  C   -0.009981
    15  C   -0.199843
    16  H    0.178638
    17  C   -0.345913
    18  H    0.133632
    19  C    0.411704
    20  C   -0.224981
    21  H    0.134596
    22  H    0.156094
    23  H    0.136320
    24  C   -0.475772
    25  H    0.172108
    26  C    0.053747
    27  C    0.005955
    28  C    0.276329
    29  C    0.145889
    30  C    0.211003
    31  C    0.133728
    32  C    0.030845
    33  C   -0.178194
    34  H    0.206856
    35  H    0.197024
    36  C   -0.184796
    37  C    0.080622
    38  C   -0.056860
    39  C   -0.142500
    40  H    0.181383
    41  C   -0.195506
    42  H    0.158384
    43  C   -0.105731
    44  H    0.161068
    45  C   -0.202157
    46  H    0.155109
    47  C   -0.210641
    48  H    0.204934
    49  C    0.029343
    50  C   -0.208103
    51  H    0.196820
    52  C   -0.174345
    53  H    0.153296
    54  C   -0.135337
    55  H    0.156322
    56  C   -0.197809
    57  H    0.154206
    58  C   -0.141728
    59  H    0.178498
    60  C   -0.066218
    61  C    0.017356
    62  H    0.157105
    63  C   -0.238778
    64  H    0.150682
    65  C   -0.104642
    66  H    0.160029
    67  C   -0.168368
    68  H    0.159934
    69  C   -0.209924
    70  H    0.176155
    71  C   -0.063630
    72  C   -0.188413
    73  H    0.209765
    74  C   -0.196454
    75  H    0.157451
    76  C   -0.101298
    77  H    0.162832
    78  C   -0.201638
    79  H    0.159953
    80  C   -0.139041
    81  H    0.185031
    82  C   -0.204482
    83  C   -0.152227
    84  C   -0.157077
    85  C   -0.137036
    86  H    0.185653
    87  H    0.164742
    88  H    0.182274
    89  H    0.164412
 Sum of Mulliken charges =  -0.00000

 Dipole moment (field-independent basis, Debye):
    X=            -10.3431    Y=             -8.6579    Z=              5.3526  Tot=             14.5117
 Quadrupole moment (field-independent basis, Debye-Ang):
   XX=           -331.2103   YY=           -358.8163   ZZ=           -345.3549
   XY=             -8.7963   XZ=             -8.8339   YZ=              4.2751

 Normal termination of Gaussian 09 at Wed Jun  4 09:54:21 2025.
