 Gaussian 09, Revision D.01,
 Gaussian 09:  ES64L-G09RevD.01 24-Apr-2013

 ----------------------------------------------------------------------
 #p sp geom=allcheck scrf(solvent=dichloromethane,smd) wb97xd genecp te
 mperature=313 integral(grid=ultrafine)
 ----------------------------------------------------------------------

 Structure from the checkpoint file:  "darfpe_step1-sp.chk"
 -----
 title
 -----
 Charge =  0 Multiplicity = 1

                         Standard orientation:
 ---------------------------------------------------------------------
 Center     Atomic      Atomic             Coordinates (Angstroms)
 Number     Number       Type             X           Y           Z
 ---------------------------------------------------------------------
      1         46           0       -0.075436    0.079583   -0.368405
      2         17           0        0.281979    0.935649   -4.024266
      3         16           0        2.217926   -0.742656   -2.439502
      4         15           0       -1.344521    0.983418    1.232221
      5         15           0        1.737710    0.936431    0.834732
      6          9           0       -2.410078   -4.570495   -1.534778
      7          9           0       -0.680602   -6.452477   -0.793964
      8          9           0        1.926381   -5.823703   -0.351547
      9          9           0        2.766761   -3.308830   -0.606885
     10          8           0        2.719431    0.532682   -1.914580
     11          8           0        3.152489   -1.805388   -2.794926
     12          8           0       -4.479252   -1.472817   -4.410783
     13          7           0        1.064754   -1.248420   -1.427572
     14          6           0       -1.618907   -0.543467   -1.517503
     15          6           0       -2.506821    0.405899   -2.037751
     16          1           0       -2.437003    1.447851   -1.718158
     17          6           0       -3.456584    0.084795   -2.997534
     18          1           0       -4.141872    0.833409   -3.400458
     19          6           0       -3.532146   -1.225077   -3.481463
     20          6           0       -4.593417   -2.769688   -4.924209
     21          1           0       -5.428110   -2.754423   -5.636585
     22          1           0       -4.811831   -3.508178   -4.132477
     23          1           0       -3.678133   -3.084683   -5.456543
     24          6           0       -2.635409   -2.179624   -3.003736
     25          1           0       -2.659938   -3.194486   -3.395378
     26          6           0       -1.677230   -1.852616   -2.025315
     27          6           0       -0.721804   -2.898851   -1.597974
     28          6           0       -1.134508   -4.216812   -1.387058
     29          6           0       -0.252024   -5.215017   -0.986205
     30          6           0        1.082296   -4.894978   -0.767008
     31          6           0        1.511737   -3.582563   -0.932339
     32          6           0        0.640090   -2.576823   -1.370832
     33          6           0        1.424718   -0.397634   -4.030964
     34          1           0        2.252821   -0.177500   -4.718054
     35          1           0        0.918269   -1.325427   -4.328858
     36          6           0        1.067619    1.295028    2.531612
     37          1           0        0.946792    0.327480    3.041363
     38          1           0        1.770414    1.902738    3.118758
     39          6           0       -0.273402    2.002183    2.362400
     40          1           0       -0.137907    2.983914    1.888519
     41          1           0       -0.782874    2.163067    3.322387
     42          6           0        3.170190   -0.154722    1.079259
     43          6           0        2.910528   -1.387437    1.683717
     44          6           0        3.878713   -2.371000    1.824773
     45          6           0        5.153610   -2.138417    1.317313
     46          6           0        5.442778   -0.926548    0.694691
     47          6           0        4.457275    0.049663    0.572738
     48          6           0        2.336551    2.583421    0.344788
     49          6           0        1.784150    3.244315   -0.755072
     50          6           0        2.214266    4.517730   -1.124071
     51          6           0        3.208075    5.151050   -0.382981
     52          6           0        3.767147    4.518437    0.728048
     53          6           0        3.318920    3.252400    1.079565
     54          6           0       -2.783050    2.008693    0.771739
     55          6           0       -2.589401    3.311460    0.302267
     56          6           0       -3.622662    4.065819   -0.242854
     57          6           0       -4.892882    3.503432   -0.355103
     58          6           0       -5.114638    2.199267    0.080533
     59          6           0       -4.063056    1.465200    0.621457
     60          6           0       -2.011737   -0.246681    2.413478
     61          6           0       -2.767042    0.180038    3.512608
     62          6           0       -3.286042   -0.705088    4.447520
     63          6           0       -3.047559   -2.071302    4.294661
     64          6           0       -2.298387   -2.529671    3.215581
     65          6           0       -1.788936   -1.621878    2.286193
     66          9           0        0.814283    2.707434   -1.464776
     67          9           0        3.861889    2.669633    2.140510
     68          9           0        4.704045    5.125549    1.431352
     69          9           0        1.675435    5.130188   -2.159700
     70          9           0        3.615617    6.354248   -0.723092
     71          9           0       -3.024513    1.472317    3.678447
     72          9           0       -3.998326   -0.268609    5.467652
     73          9           0       -3.528641   -2.921676    5.172652
     74          9           0       -2.068809   -3.818359    3.074472
     75          9           0       -1.086370   -2.129032    1.296793
     76          9           0        1.681249   -1.665392    2.115856
     77          9           0        4.797288    1.173033   -0.027105
     78          9           0        6.653402   -0.707328    0.220702
     79          9           0        6.084760   -3.060565    1.426074
     80          9           0        3.584140   -3.525512    2.388096
     81          9           0       -1.383256    3.869534    0.331799
     82          9           0       -3.403639    5.295314   -0.662905
     83          9           0       -5.878438    4.202695   -0.871482
     84          9           0       -6.309632    1.659713   -0.040339
     85          9           0       -4.317352    0.215613    0.968599
 ---------------------------------------------------------------------

 SCF Done:  E(RwB97XD) =  -5877.54652845     A.U. after   26 cycles

 The electronic state is 1-A.
 Alpha  occ. eigenvalues -- -101.69340 -89.21634 -77.29354 -77.27869 -24.86444
 Alpha  occ. eigenvalues --  -24.86419 -24.86277 -24.86259 -24.86234 -24.86000
 Alpha  occ. eigenvalues --  -24.85999 -24.85969 -24.85950 -24.85873 -24.85870
 Alpha  occ. eigenvalues --  -24.85787 -24.85782 -24.85725 -24.85690 -24.85573
 Alpha  occ. eigenvalues --  -24.85522 -24.85314 -24.85301 -24.85205 -24.84514
 Alpha  occ. eigenvalues --  -24.84389 -24.83747 -24.83470 -19.27766 -19.23829
 Alpha  occ. eigenvalues --  -19.23736 -14.44250 -10.42047 -10.42002 -10.41996
 Alpha  occ. eigenvalues --  -10.41930 -10.41902 -10.41867 -10.41807 -10.41568
 Alpha  occ. eigenvalues --  -10.41562 -10.41297 -10.41291 -10.41237 -10.41207
 Alpha  occ. eigenvalues --  -10.41151 -10.41119 -10.40988 -10.40857 -10.40716
 Alpha  occ. eigenvalues --  -10.40500 -10.40446 -10.39221 -10.38934 -10.38774
 Alpha  occ. eigenvalues --  -10.38436 -10.35993 -10.34968 -10.34735 -10.34579
 Alpha  occ. eigenvalues --  -10.34261 -10.34116 -10.34039 -10.32450 -10.31918
 Alpha  occ. eigenvalues --  -10.31644 -10.31585 -10.30243 -10.28324 -10.28279
 Alpha  occ. eigenvalues --  -10.28199 -10.27961  -9.57910  -8.21723  -7.32585
 Alpha  occ. eigenvalues --   -7.31679  -7.31642  -6.73600  -6.72260  -6.16556
 Alpha  occ. eigenvalues --   -6.16477  -6.16465  -4.88354  -4.88258  -4.87959
 Alpha  occ. eigenvalues --   -4.87002  -4.86919  -4.86576  -3.59805  -2.28380
 Alpha  occ. eigenvalues --   -2.27973  -2.24977  -1.39217  -1.39201  -1.38933
 Alpha  occ. eigenvalues --   -1.38642  -1.38539  -1.38486  -1.38202  -1.38069
 Alpha  occ. eigenvalues --   -1.38000  -1.37930  -1.37703  -1.37412  -1.37067
 Alpha  occ. eigenvalues --   -1.37064  -1.37012  -1.36742  -1.36692  -1.36638
 Alpha  occ. eigenvalues --   -1.36482  -1.36349  -1.36100  -1.36072  -1.34964
 Alpha  occ. eigenvalues --   -1.34599  -1.20678  -1.17329  -1.09743  -1.02876
 Alpha  occ. eigenvalues --   -1.01563  -1.01239  -1.01130  -1.00775  -0.97397
 Alpha  occ. eigenvalues --   -0.96532  -0.95187  -0.93737  -0.91831  -0.89830
 Alpha  occ. eigenvalues --   -0.89385  -0.89150  -0.89106  -0.89056  -0.88989
 Alpha  occ. eigenvalues --   -0.88803  -0.88505  -0.86094  -0.84250  -0.83681
 Alpha  occ. eigenvalues --   -0.82315  -0.80938  -0.80208  -0.78395  -0.78297
 Alpha  occ. eigenvalues --   -0.77979  -0.77691  -0.77579  -0.77326  -0.77053
 Alpha  occ. eigenvalues --   -0.75911  -0.75761  -0.75215  -0.73126  -0.71458
 Alpha  occ. eigenvalues --   -0.71100  -0.70800  -0.70698  -0.70667  -0.70547
 Alpha  occ. eigenvalues --   -0.70412  -0.70301  -0.70064  -0.69618  -0.69421
 Alpha  occ. eigenvalues --   -0.69060  -0.68659  -0.68634  -0.67542  -0.66655
 Alpha  occ. eigenvalues --   -0.66414  -0.66241  -0.65610  -0.65558  -0.65333
 Alpha  occ. eigenvalues --   -0.65214  -0.65075  -0.65049  -0.64799  -0.64715
 Alpha  occ. eigenvalues --   -0.64498  -0.64061  -0.63760  -0.63703  -0.63502
 Alpha  occ. eigenvalues --   -0.63302  -0.63088  -0.62925  -0.62818  -0.62437
 Alpha  occ. eigenvalues --   -0.62185  -0.61645  -0.61441  -0.61247  -0.61006
 Alpha  occ. eigenvalues --   -0.60952  -0.60479  -0.60280  -0.60196  -0.59774
 Alpha  occ. eigenvalues --   -0.59390  -0.59257  -0.58411  -0.58395  -0.58229
 Alpha  occ. eigenvalues --   -0.58082  -0.57789  -0.57709  -0.57568  -0.57524
 Alpha  occ. eigenvalues --   -0.57494  -0.57310  -0.57105  -0.56823  -0.56711
 Alpha  occ. eigenvalues --   -0.56592  -0.56169  -0.55857  -0.55793  -0.55671
 Alpha  occ. eigenvalues --   -0.55515  -0.55423  -0.55286  -0.55008  -0.55000
 Alpha  occ. eigenvalues --   -0.54939  -0.54795  -0.54575  -0.54451  -0.54172
 Alpha  occ. eigenvalues --   -0.53659  -0.53613  -0.53258  -0.52685  -0.52290
 Alpha  occ. eigenvalues --   -0.52094  -0.51880  -0.51843  -0.51673  -0.51512
 Alpha  occ. eigenvalues --   -0.51379  -0.50898  -0.50634  -0.49772  -0.49374
 Alpha  occ. eigenvalues --   -0.48781  -0.48723  -0.48531  -0.48363  -0.48171
 Alpha  occ. eigenvalues --   -0.47758  -0.47607  -0.47560  -0.46929  -0.46714
 Alpha  occ. eigenvalues --   -0.46584  -0.46055  -0.45457  -0.45304  -0.45098
 Alpha  occ. eigenvalues --   -0.44386  -0.44169  -0.43578  -0.43255  -0.42561
 Alpha  occ. eigenvalues --   -0.42130  -0.41752  -0.40687  -0.40520  -0.39685
 Alpha  occ. eigenvalues --   -0.39502  -0.38405  -0.37785  -0.37539  -0.36747
 Alpha  occ. eigenvalues --   -0.36700  -0.35758  -0.35616  -0.35139  -0.34960
 Alpha  occ. eigenvalues --   -0.34404  -0.34338  -0.34015  -0.33975  -0.33584
 Alpha  occ. eigenvalues --   -0.32899  -0.31973  -0.31065  -0.29430  -0.28090
 Alpha virt. eigenvalues --   -0.00178   0.00551   0.01066   0.01854   0.02188
 Alpha virt. eigenvalues --    0.03723   0.03938   0.04345   0.04613   0.04801
 Alpha virt. eigenvalues --    0.05025   0.05706   0.06065   0.06592   0.06749

 Mulliken charges:
               1
     1  Pd  -0.002827
     2  Cl  -0.108030
     3  S    0.838014
     4  P    0.431076
     5  P    0.652163
     6  F   -0.214782
     7  F   -0.201425
     8  F   -0.198943
     9  F   -0.212166
    10  O   -0.541999
    11  O   -0.518509
    12  O   -0.303332
    13  N   -0.382100
    14  C    0.047827
    15  C   -0.275564
    16  H    0.187593
    17  C   -0.285303
    18  H    0.136770
    19  C    0.397047
    20  C   -0.225963
    21  H    0.156987
    22  H    0.137903
    23  H    0.135278
    24  C   -0.456604
    25  H    0.174424
    26  C    0.044437
    27  C    0.001659
    28  C    0.294460
    29  C    0.142298
    30  C    0.198799
    31  C    0.169600
    32  C   -0.009245
    33  C   -0.176289
    34  H    0.203537
    35  H    0.192957
    36  C   -0.351543
    37  H    0.202623
    38  H    0.192908
    39  C   -0.354221
    40  H    0.204856
    41  H    0.196338
    42  C   -0.279005
    43  C    0.209594
    44  C    0.180398
    45  C    0.215888
    46  C    0.181628
    47  C    0.280725
    48  C   -0.257807
    49  C    0.259541
    50  C    0.186986
    51  C    0.206876
    52  C    0.168130
    53  C    0.225649
    54  C   -0.294749
    55  C    0.280076
    56  C    0.147304
    57  C    0.232851
    58  C    0.146114
    59  C    0.327594
    60  C   -0.243236
    61  C    0.296087
    62  C    0.152037
    63  C    0.224958
    64  C    0.165197
    65  C    0.255639
    66  F   -0.184289
    67  F   -0.200668
    68  F   -0.187614
    69  F   -0.186983
    70  F   -0.178457
    71  F   -0.198481
    72  F   -0.185710
    73  F   -0.176265
    74  F   -0.185477
    75  F   -0.183935
    76  F   -0.212877
    77  F   -0.194659
    78  F   -0.188670
    79  F   -0.180815
    80  F   -0.190879
    81  F   -0.210645
    82  F   -0.184244
    83  F   -0.176965
    84  F   -0.184399
    85  F   -0.197147
 Sum of Mulliken charges =   0.00000

 Dipole moment (field-independent basis, Debye):
    X=             -4.8818    Y=              6.5106    Z=              6.8316  Tot=             10.6249
 Quadrupole moment (field-independent basis, Debye-Ang):
   XX=           -466.5944   YY=           -463.8111   ZZ=           -418.9289
   XY=              8.9844   XZ=             11.5122   YZ=             20.1062

 Normal termination of Gaussian 09 at Mon Nov 27 19:22:27 2023.
