 Gaussian 09, Revision D.01,
 Gaussian 09:  ES64L-G09RevD.01 24-Apr-2013

 ----------------------------------------------------------------------
 #p sp geom=allcheck scrf(solvent=dichloromethane,smd) wb97xd genecp te
 mperature=313 integral(grid=ultrafine)
 ----------------------------------------------------------------------

 Structure from the checkpoint file:  "cata-v5-sp.chk"
 -----
 title
 -----
 Charge =  0 Multiplicity = 1

                         Standard orientation:
 ---------------------------------------------------------------------
 Center     Atomic      Atomic             Coordinates (Angstroms)
 Number     Number       Type             X           Y           Z
 ---------------------------------------------------------------------
      1         46           0        0.068602   -0.612954    0.281683
      2          6           0        1.202374    0.526968    1.416969
      3          6           0        0.714586    0.986741    2.645861
      4          1           0       -0.307393    0.754086    2.944017
      5          6           0        1.506450    1.718138    3.519290
      6          1           0        1.120292    2.075703    4.475796
      7          6           0        2.834397    1.998090    3.179660
      8          6           0        3.344472    1.518717    1.975185
      9          1           0        4.384773    1.700396    1.716020
     10          6           0        2.546115    0.778544    1.079640
     11          6           0        3.177250    0.245612   -0.149458
     12          6           0        4.155579    0.956280   -0.851991
     13          6           0        4.800271    0.424685   -1.964651
     14          6           0        4.452064   -0.843736   -2.417018
     15          6           0        3.444900   -1.552540   -1.771057
     16          6           0        2.813961   -1.036960   -0.631906
     17          7           0        1.731198   -1.702976   -0.077036
     18         16           0        1.812676   -3.203299    0.530669
     19          8           0        0.575673   -3.904320    0.192915
     20          8           0        3.117926   -3.807355    0.285198
     21          6           0        1.788208   -2.996404    2.337800
     22         17           0        0.207222   -2.571575    3.000255
     23          1           0        2.518481   -2.218677    2.596296
     24          1           0        2.092285   -3.972005    2.738954
     25          9           0        3.051569   -2.701018   -2.294638
     26          9           0        5.035027   -1.341009   -3.494802
     27          9           0        5.727304    1.126689   -2.600432
     28          9           0        4.507478    2.191405   -0.491583
     29          8           0        3.548121    2.717024    4.071972
     30          6           0        4.881881    3.021080    3.775256
     31          1           0        5.501192    2.111272    3.681099
     32          1           0        5.261738    3.621795    4.611466
     33          1           0        4.973104    3.606409    2.843063
     34         15           0       -1.875902    0.572224    0.204093
     35          6           0       -2.901499   -0.874605   -0.420678
     36          6           0       -1.697501    1.990871   -0.999987
     37          6           0       -2.649860    1.201939    1.748563
     38          6           0       -3.326017   -1.692186    0.818464
     39          6           0       -4.135425   -0.562761   -1.276556
     40          6           0       -1.934353   -1.761689   -1.245218
     41          6           0       -2.981487    2.757854   -1.356020
     42          6           0       -0.704006    2.975734   -0.344608
     43          6           0       -1.059890    1.452100   -2.295600
     44          1           0       -2.496077    0.383886    2.471668
     45          1           0       -1.995249    2.017650    2.094968
     46          6           0       -4.110367    1.640960    1.775866
     47          6           0       -4.011248   -2.992387    0.387769
     48          1           0       -4.020352   -1.109284    1.443008
     49          1           0       -2.439052   -1.921040    1.434610
     50          6           0       -4.824693   -1.869023   -1.693343
     51          1           0       -4.839111    0.076567   -0.719735
     52          1           0       -3.838970   -0.004246   -2.178431
     53          6           0       -2.625061   -3.059045   -1.680455
     54          1           0       -1.056849   -2.102845   -0.638650
     55          1           0       -1.551387   -1.226627   -2.125150
     56          6           0       -2.654129    3.904239   -2.323282
     57          1           0       -3.436589    3.178288   -0.447466
     58          1           0       -3.726026    2.087258   -1.809778
     59          6           0       -0.385368    4.125286   -1.303866
     60          1           0       -1.131563    3.383900    0.586479
     61          1           0        0.219622    2.444749   -0.064074
     62          6           0       -0.734346    2.603734   -3.249587
     63          1           0       -1.749920    0.752671   -2.794582
     64          1           0       -0.142790    0.887870   -2.050108
     65          1           0       -4.750514    0.878425    1.303488
     66          6           0       -4.602135    1.892889    3.196102
     67          1           0       -4.247539    2.555630    1.179856
     68          6           0       -5.247805   -2.652554   -0.448087
     69          6           0       -3.040234   -3.840942   -0.434496
     70          1           0       -4.312628   -3.544075    1.293180
     71          6           0       -3.854042   -2.713332   -2.523939
     72          1           0       -5.713280   -1.622310   -2.297544
     73          1           0       -1.908330   -3.651049   -2.270409
     74          6           0       -1.673952    4.871530   -1.655665
     75          6           0       -2.026344    3.344624   -3.601420
     76          1           0       -3.589854    4.433020   -2.569202
     77          6           0        0.249941    3.561669   -2.576186
     78          1           0        0.321124    4.809985   -0.807190
     79          1           0       -0.281952    2.186014   -4.163741
     80          1           0       -3.949558    2.642818    3.676880
     81          1           0       -4.480875    0.968551    3.788276
     82          6           0       -6.048751    2.354766    3.252274
     83          1           0       -5.771288   -3.576733   -0.744382
     84          1           0       -5.961081   -2.059056    0.149651
     85          1           0       -3.518786   -4.790539   -0.725842
     86          1           0       -2.145781   -4.093190    0.157886
     87          1           0       -4.349798   -3.638862   -2.860918
     88          1           0       -3.552744   -2.163504   -3.431950
     89          1           0       -1.453949    5.714443   -2.332015
     90          1           0       -2.124786    5.301250   -0.744807
     91          1           0       -1.815706    4.163895   -4.308960
     92          1           0       -2.731075    2.660583   -4.104618
     93          1           0        0.514758    4.380988   -3.265201
     94          1           0        1.185769    3.032815   -2.329136
     95          1           0       -6.724499    1.607186    2.806624
     96          1           0       -6.378939    2.525141    4.287728
     97          1           0       -6.189783    3.297022    2.698936
 ---------------------------------------------------------------------

 SCF Done:  E(RwB97XD) =  -3484.14244173     A.U. after   25 cycles

 The electronic state is 1-A.
 Alpha  occ. eigenvalues -- -101.69737 -89.21509 -77.23420 -24.84504 -24.84321
 Alpha  occ. eigenvalues --  -24.83849 -24.83480 -19.27934 -19.23799 -19.23581
 Alpha  occ. eigenvalues --  -14.43756 -10.39271 -10.38923 -10.38828 -10.38278
 Alpha  occ. eigenvalues --  -10.36070 -10.34922 -10.34499 -10.32544 -10.31770
 Alpha  occ. eigenvalues --  -10.30829 -10.30802 -10.30394 -10.29969 -10.29153
 Alpha  occ. eigenvalues --  -10.29035 -10.28553 -10.28532 -10.28321 -10.28063
 Alpha  occ. eigenvalues --  -10.27946 -10.27809 -10.27736 -10.27697 -10.27664
 Alpha  occ. eigenvalues --  -10.27664 -10.27595 -10.27555 -10.27546 -10.27456
 Alpha  occ. eigenvalues --  -10.27417 -10.27262 -10.26859 -10.26766 -10.26701
 Alpha  occ. eigenvalues --  -10.26677 -10.26638 -10.26552 -10.26459  -9.58287
 Alpha  occ. eigenvalues --   -8.21584  -7.32951  -7.32067  -7.32023  -6.67968
 Alpha  occ. eigenvalues --   -6.16434  -6.16344  -6.16306  -4.82641  -4.82598
 Alpha  occ. eigenvalues --   -4.82372  -3.57616  -2.26372  -2.25819  -2.22842
 Alpha  occ. eigenvalues --   -1.37011  -1.36041  -1.34998  -1.34598  -1.20554
 Alpha  occ. eigenvalues --   -1.17485  -1.09702  -1.02815  -0.97923  -0.97364
 Alpha  occ. eigenvalues --   -0.97339  -0.96560  -0.95537  -0.90726  -0.89253
 Alpha  occ. eigenvalues --   -0.88513  -0.87046  -0.86903  -0.86694  -0.86545
 Alpha  occ. eigenvalues --   -0.86429  -0.86093  -0.84587  -0.83938  -0.83113
 Alpha  occ. eigenvalues --   -0.80835  -0.78625  -0.76659  -0.76466  -0.75925
 Alpha  occ. eigenvalues --   -0.75891  -0.75646  -0.75350  -0.75335  -0.70786
 Alpha  occ. eigenvalues --   -0.70450  -0.69713  -0.68808  -0.67907  -0.67663
 Alpha  occ. eigenvalues --   -0.67482  -0.67251  -0.67084  -0.66935  -0.66648
 Alpha  occ. eigenvalues --   -0.66227  -0.64729  -0.63357  -0.63087  -0.62103
 Alpha  occ. eigenvalues --   -0.61769  -0.61177  -0.61098  -0.59695  -0.59486
 Alpha  occ. eigenvalues --   -0.58493  -0.57896  -0.57298  -0.56491  -0.56446
 Alpha  occ. eigenvalues --   -0.56225  -0.55880  -0.55564  -0.55090  -0.54638
 Alpha  occ. eigenvalues --   -0.54389  -0.54004  -0.53846  -0.53678  -0.53536
 Alpha  occ. eigenvalues --   -0.53326  -0.53237  -0.53190  -0.53118  -0.52679
 Alpha  occ. eigenvalues --   -0.52130  -0.51753  -0.51358  -0.51080  -0.50824
 Alpha  occ. eigenvalues --   -0.50643  -0.50212  -0.49911  -0.49551  -0.49414
 Alpha  occ. eigenvalues --   -0.49199  -0.48961  -0.48608  -0.48239  -0.48022
 Alpha  occ. eigenvalues --   -0.47766  -0.47586  -0.47272  -0.47016  -0.46679
 Alpha  occ. eigenvalues --   -0.46571  -0.45521  -0.45330  -0.44831  -0.44179
 Alpha  occ. eigenvalues --   -0.43586  -0.43409  -0.43028  -0.42549  -0.42274
 Alpha  occ. eigenvalues --   -0.41836  -0.41760  -0.41410  -0.41302  -0.41022
 Alpha  occ. eigenvalues --   -0.40943  -0.40912  -0.40541  -0.40501  -0.40360
 Alpha  occ. eigenvalues --   -0.40295  -0.40149  -0.39847  -0.39688  -0.39352
 Alpha  occ. eigenvalues --   -0.39272  -0.38957  -0.38714  -0.37584  -0.36968
 Alpha  occ. eigenvalues --   -0.36446  -0.36076  -0.35663  -0.35498  -0.35412
 Alpha  occ. eigenvalues --   -0.35108  -0.35006  -0.34308  -0.33387  -0.32930
 Alpha  occ. eigenvalues --   -0.31210  -0.30732  -0.29129  -0.27751
 Alpha virt. eigenvalues --    0.01635   0.02277   0.05578   0.06482   0.07356
 Alpha virt. eigenvalues --    0.08054   0.08657   0.09102   0.09950   0.10312
 Alpha virt. eigenvalues --    0.11373   0.11660   0.12083   0.12344   0.12836

 Mulliken charges:
               1
     1  Pd  -0.052142
     2  C   -0.126510
     3  C   -0.191973
     4  H    0.203576
     5  C   -0.305930
     6  H    0.140746
     7  C    0.399980
     8  C   -0.434784
     9  H    0.176251
    10  C    0.130346
    11  C    0.034123
    12  C    0.253733
    13  C    0.152908
    14  C    0.197073
    15  C    0.202400
    16  C   -0.055046
    17  N   -0.395295
    18  S    0.834724
    19  O   -0.520840
    20  O   -0.517210
    21  C   -0.182995
    22  Cl  -0.103381
    23  H    0.199135
    24  H    0.206005
    25  F   -0.207134
    26  F   -0.198178
    27  F   -0.202298
    28  F   -0.217023
    29  O   -0.303172
    30  C   -0.226801
    31  H    0.136689
    32  H    0.157759
    33  H    0.138403
    34  P    0.191130
    35  C    0.486098
    36  C    0.582584
    37  C   -0.441063
    38  C   -0.517900
    39  C   -0.499830
    40  C   -0.497927
    41  C   -0.452412
    42  C   -0.554157
    43  C   -0.593980
    44  H    0.191187
    45  H    0.195682
    46  C   -0.259968
    47  C    0.158561
    48  H    0.140085
    49  H    0.154338
    50  C    0.170481
    51  H    0.146183
    52  H    0.121370
    53  C    0.151317
    54  H    0.176940
    55  H    0.182714
    56  C    0.144652
    57  H    0.105098
    58  H    0.147946
    59  C    0.154750
    60  H    0.134409
    61  H    0.161767
    62  C    0.188978
    63  H    0.121301
    64  H    0.192796
    65  H    0.110761
    66  C   -0.165060
    67  H    0.113301
    68  C   -0.339328
    69  C   -0.367761
    70  H    0.086202
    71  C   -0.319515
    72  H    0.086802
    73  H    0.100042
    74  C   -0.330289
    75  C   -0.335544
    76  H    0.085476
    77  C   -0.358547
    78  H    0.086183
    79  H    0.085461
    80  H    0.108247
    81  H    0.108256
    82  C   -0.394897
    83  H    0.115224
    84  H    0.104947
    85  H    0.113587
    86  H    0.131216
    87  H    0.116907
    88  H    0.104716
    89  H    0.113577
    90  H    0.102806
    91  H    0.113242
    92  H    0.103361
    93  H    0.113879
    94  H    0.118745
    95  H    0.122715
    96  H    0.136167
    97  H    0.122857
 Sum of Mulliken charges =   0.00000

 Dipole moment (field-independent basis, Debye):
    X=            -10.8002    Y=              8.0869    Z=              2.1617  Tot=             13.6644
 Quadrupole moment (field-independent basis, Debye-Ang):
   XX=           -319.8051   YY=           -351.8234   ZZ=           -326.6415
   XY=             13.7688   XZ=             20.3474   YZ=             -4.0293

 Normal termination of Gaussian 09 at Fri Mar  1 19:02:37 2024.
