 Gaussian 09, Revision D.01,
 Gaussian 09:  ES64L-G09RevD.01 24-Apr-2013

 ----------------------------------------------------------------------
 #p sp geom=allcheck scrf(solvent=dichloromethane,smd) wb97xd genecp te
 mperature=313 integral(grid=ultrafine)
 ----------------------------------------------------------------------

 Structure from the checkpoint file:  "tbu2cy-v4-sp.chk"
 -----
 title
 -----
 Charge =  0 Multiplicity = 1

                         Standard orientation:
 ---------------------------------------------------------------------
 Center     Atomic      Atomic             Coordinates (Angstroms)
 Number     Number       Type             X           Y           Z
 ---------------------------------------------------------------------
      1         46           0       -0.335501   -0.655151    0.119836
      2          6           0        0.319128    1.196894    0.176093
      3          6           0       -0.529432    2.209826    0.637090
      4          1           0       -1.560679    1.974882    0.903703
      5          6           0       -0.089784    3.516117    0.796030
      6          1           0       -0.756619    4.302554    1.154497
      7          6           0        1.240639    3.837665    0.505365
      8          6           0        2.107241    2.831819    0.082576
      9          1           0        3.152481    3.061345   -0.110439
     10          6           0        1.667501    1.502774   -0.083401
     11          6           0        2.661380    0.469611   -0.452137
     12          6           0        3.720123    0.731262   -1.326987
     13          6           0        4.693054   -0.221291   -1.613684
     14          6           0        4.607263   -1.483977   -1.036523
     15          6           0        3.539153   -1.787921   -0.198696
     16          6           0        2.572521   -0.825111    0.116861
     17          7           0        1.459528   -1.186266    0.866907
     18         16           0        1.566318   -1.652997    2.418321
     19          8           0        0.504620   -2.621097    2.669851
     20          8           0        2.952130   -1.923018    2.788823
     21          6           0        1.167745   -0.183699    3.414534
     22         17           0       -0.549875    0.215603    3.470841
     23          1           0        1.733441    0.663032    3.003859
     24          1           0        1.510301   -0.428956    4.428226
     25          9           0        3.424470   -3.027132    0.244504
     26          9           0        5.509155   -2.404484   -1.331828
     27          9           0        5.684928    0.064295   -2.444234
     28          9           0        3.838833    1.910974   -1.937387
     29          8           0        1.601903    5.126422    0.676210
     30          6           0        2.924639    5.495072    0.402616
     31          1           0        3.641941    4.976119    1.063042
     32          1           0        2.994587    6.575029    0.584382
     33          1           0        3.200197    5.289622   -0.646948
     34         15           0       -2.253638   -0.413369   -1.089501
     35          6           0       -3.640749    0.386024   -0.147026
     36          6           0       -2.118831    0.476250   -2.749678
     37          6           0       -2.541384   -2.280297   -1.271086
     38          6           0       -5.035370    0.505775   -0.768019
     39          6           0       -3.727446   -0.145489    1.288137
     40          1           0       -3.242533    1.414671   -0.069674
     41          6           0       -3.158435    0.024204   -3.777986
     42          6           0       -2.277508    1.978001   -2.479896
     43          6           0       -0.704527    0.255924   -3.300775
     44          6           0       -1.652680   -2.848701   -2.381137
     45          6           0       -2.029707   -2.875526    0.054466
     46          6           0       -3.993524   -2.686017   -1.502106
     47          6           0       -5.928189    1.393577    0.097938
     48          1           0       -4.981751    0.924301   -1.782618
     49          1           0       -5.493789   -0.490591   -0.864096
     50          6           0       -4.615198    0.749287    2.145576
     51          1           0       -2.719126   -0.226124    1.725941
     52          1           0       -4.153232   -1.163580    1.280703
     53          1           0       -4.190385    0.161737   -3.428611
     54          1           0       -3.037973    0.626339   -4.693583
     55          1           0       -3.035553   -1.028324   -4.065367
     56          1           0       -2.068538    2.523561   -3.414096
     57          1           0       -3.294047    2.250928   -2.163346
     58          1           0       -1.562643    2.333482   -1.723219
     59          1           0        0.058108    0.591749   -2.583061
     60          1           0       -0.589517    0.843216   -4.226317
     61          1           0       -0.501078   -0.793149   -3.547566
     62          1           0       -1.968054   -2.539678   -3.385841
     63          1           0       -0.597321   -2.569007   -2.241802
     64          1           0       -1.708202   -3.948820   -2.343207
     65          1           0       -2.145523   -3.972098    0.035908
     66          1           0       -0.934232   -2.735755    0.212859
     67          1           0       -2.550377   -2.501744    0.943491
     68          1           0       -4.051230   -3.780899   -1.621070
     69          1           0       -4.634926   -2.416001   -0.651958
     70          1           0       -4.412814   -2.229825   -2.410066
     71          6           0       -6.004344    0.898869    1.537362
     72          1           0       -6.935466    1.451033   -0.344972
     73          1           0       -5.526348    2.423130    0.087418
     74          1           0       -4.678789    0.341686    3.166840
     75          1           0       -4.142084    1.743705    2.238149
     76          1           0       -6.621094    1.580737    2.144225
     77          1           0       -6.514798   -0.081129    1.557260
 ---------------------------------------------------------------------

 SCF Done:  E(RwB97XD) =  -3096.97835392     A.U. after   20 cycles

 The electronic state is 1-A.
 Alpha  occ. eigenvalues -- -101.69627 -89.21411 -77.23580 -24.84532 -24.84378
 Alpha  occ. eigenvalues --  -24.83893 -24.83491 -19.27986 -19.23713 -19.23595
 Alpha  occ. eigenvalues --  -14.43769 -10.39298 -10.38972 -10.38908 -10.38339
 Alpha  occ. eigenvalues --  -10.36013 -10.34865 -10.34580 -10.32576 -10.31838
 Alpha  occ. eigenvalues --  -10.31643 -10.31350 -10.30883 -10.30141 -10.29759
 Alpha  occ. eigenvalues --  -10.28804 -10.28694 -10.28618 -10.28374 -10.27823
 Alpha  occ. eigenvalues --  -10.27813 -10.27485 -10.27453 -10.27356 -10.27288
 Alpha  occ. eigenvalues --  -10.27241 -10.27215 -10.27062 -10.26948  -9.58184
 Alpha  occ. eigenvalues --   -8.21492  -7.32849  -7.31963  -7.31919  -6.68098
 Alpha  occ. eigenvalues --   -6.16338  -6.16252  -6.16218  -4.82765  -4.82732
 Alpha  occ. eigenvalues --   -4.82504  -3.57627  -2.26386  -2.25824  -2.22870
 Alpha  occ. eigenvalues --   -1.37065  -1.36092  -1.35044  -1.34649  -1.20543
 Alpha  occ. eigenvalues --   -1.17547  -1.09721  -1.02782  -0.97312  -0.96565
 Alpha  occ. eigenvalues --   -0.95631  -0.94322  -0.92548  -0.91194  -0.89308
 Alpha  occ. eigenvalues --   -0.86072  -0.84816  -0.84578  -0.84012  -0.83924
 Alpha  occ. eigenvalues --   -0.80791  -0.79333  -0.78710  -0.78661  -0.78322
 Alpha  occ. eigenvalues --   -0.77751  -0.75640  -0.75392  -0.74893  -0.70747
 Alpha  occ. eigenvalues --   -0.70088  -0.69700  -0.68928  -0.68566  -0.66735
 Alpha  occ. eigenvalues --   -0.66303  -0.64970  -0.64733  -0.64552  -0.63146
 Alpha  occ. eigenvalues --   -0.62122  -0.61816  -0.61257  -0.61125  -0.59588
 Alpha  occ. eigenvalues --   -0.58515  -0.57862  -0.57352  -0.56979  -0.56456
 Alpha  occ. eigenvalues --   -0.56294  -0.55922  -0.55712  -0.55556  -0.55020
 Alpha  occ. eigenvalues --   -0.54363  -0.54129  -0.53854  -0.53556  -0.53376
 Alpha  occ. eigenvalues --   -0.53159  -0.52580  -0.52412  -0.52032  -0.51816
 Alpha  occ. eigenvalues --   -0.51608  -0.51285  -0.50826  -0.50756  -0.49755
 Alpha  occ. eigenvalues --   -0.49134  -0.48243  -0.47848  -0.47735  -0.47693
 Alpha  occ. eigenvalues --   -0.47034  -0.46814  -0.46380  -0.46243  -0.45941
 Alpha  occ. eigenvalues --   -0.45554  -0.45175  -0.44792  -0.44443  -0.43828
 Alpha  occ. eigenvalues --   -0.43359  -0.43275  -0.42996  -0.42304  -0.42166
 Alpha  occ. eigenvalues --   -0.41722  -0.41626  -0.41369  -0.41207  -0.40807
 Alpha  occ. eigenvalues --   -0.40724  -0.40046  -0.39720  -0.39227  -0.38972
 Alpha  occ. eigenvalues --   -0.38836  -0.38057  -0.37635  -0.37091  -0.36404
 Alpha  occ. eigenvalues --   -0.36201  -0.35485  -0.35008  -0.33992  -0.33490
 Alpha  occ. eigenvalues --   -0.31224  -0.30938  -0.29352  -0.27831
 Alpha virt. eigenvalues --    0.01535   0.02181   0.05471   0.06530   0.07515
 Alpha virt. eigenvalues --    0.08463   0.08605   0.09821   0.10201   0.10635
 Alpha virt. eigenvalues --    0.11947   0.11961   0.12240   0.12705   0.13563

 Mulliken charges:
               1
     1  Pd   0.034163
     2  C    0.011711
     3  C   -0.319004
     4  H    0.202030
     5  C   -0.297858
     6  H    0.137764
     7  C    0.385558
     8  C   -0.423551
     9  H    0.176726
    10  C    0.095539
    11  C   -0.014220
    12  C    0.277111
    13  C    0.141030
    14  C    0.205598
    15  C    0.187041
    16  C   -0.002829
    17  N   -0.409364
    18  S    0.839831
    19  O   -0.520994
    20  O   -0.517565
    21  C   -0.183654
    22  Cl  -0.108743
    23  H    0.196626
    24  H    0.205242
    25  F   -0.204924
    26  F   -0.198015
    27  F   -0.201805
    28  F   -0.215062
    29  O   -0.302343
    30  C   -0.226524
    31  H    0.136596
    32  H    0.158050
    33  H    0.138627
    34  P    0.241546
    35  C   -0.086731
    36  C    0.158562
    37  C    0.147379
    38  C   -0.265325
    39  C   -0.299610
    40  H    0.102728
    41  C   -0.429763
    42  C   -0.479699
    43  C   -0.459501
    44  C   -0.494170
    45  C   -0.457883
    46  C   -0.433843
    47  C   -0.203665
    48  H    0.117933
    49  H    0.124405
    50  C   -0.207672
    51  H    0.140370
    52  H    0.122957
    53  H    0.150323
    54  H    0.144880
    55  H    0.132359
    56  H    0.146413
    57  H    0.149651
    58  H    0.165622
    59  H    0.157119
    60  H    0.142827
    61  H    0.158384
    62  H    0.145974
    63  H    0.175135
    64  H    0.151494
    65  H    0.167563
    66  H    0.173142
    67  H    0.185825
    68  H    0.146812
    69  H    0.140667
    70  H    0.158021
    71  C   -0.182476
    72  H    0.119811
    73  H    0.104538
    74  H    0.121084
    75  H    0.109854
    76  H    0.118465
    77  H    0.095709
 Sum of Mulliken charges =   0.00000

 Dipole moment (field-independent basis, Debye):
    X=            -11.6541    Y=              4.6811    Z=             -5.8292  Tot=             13.8459
 Quadrupole moment (field-independent basis, Debye-Ang):
   XX=           -266.4340   YY=           -276.0860   ZZ=           -275.9898
   XY=             27.4418   XZ=             10.0157   YZ=             18.3645

 Normal termination of Gaussian 09 at Fri Mar  1 20:16:08 2024.
