 Gaussian 09, Revision D.01,
 Gaussian 09:  ES64L-G09RevD.01 24-Apr-2013

 ----------------------------------------------------------------------
 #p sp geom=allcheck scrf(solvent=dichloromethane,smd) wb97xd genecp te
 mperature=313 integral(grid=ultrafine)
 ----------------------------------------------------------------------

 Structure from the checkpoint file:  "neopentyl-v5-sp.chk"
 -----
 title
 -----
 Charge =  0 Multiplicity = 1

                         Standard orientation:
 ---------------------------------------------------------------------
 Center     Atomic      Atomic             Coordinates (Angstroms)
 Number     Number       Type             X           Y           Z
 ---------------------------------------------------------------------
      1         46           0        0.820022   -0.329961   -0.442563
      2          6           0       -0.336609    1.271796   -0.523603
      3          6           0       -0.016897    2.354489   -1.348314
      4          1           0        0.917910    2.357175   -1.909918
      5          6           0       -0.867543    3.445824   -1.480073
      6          1           0       -0.613675    4.290620   -2.123216
      7          6           0       -2.076240    3.472802   -0.777410
      8          6           0       -2.428905    2.379757    0.012561
      9          1           0       -3.392442    2.356901    0.516853
     10          6           0       -1.584942    1.261645    0.126294
     11          6           0       -2.081943    0.062617    0.835525
     12          6           0       -2.853882    0.136063    1.994394
     13          6           0       -3.369144   -1.004202    2.606355
     14          6           0       -3.099281   -2.254899    2.061734
     15          6           0       -2.297092   -2.360184    0.927339
     16          6           0       -1.805207   -1.216870    0.289766
     17          7           0       -0.907827   -1.324960   -0.769198
     18         16           0       -1.270823   -1.898320   -2.240785
     19          8           0        0.004524   -2.247111   -2.875338
     20          8           0       -2.373182   -2.845168   -2.193846
     21          6           0       -1.827893   -0.480919   -3.220048
     22         17           0       -3.361566    0.177020   -2.655608
     23          1           0       -1.939260   -0.855258   -4.246732
     24          1           0       -1.049460    0.289996   -3.162333
     25          9           0       -1.965886   -3.567684    0.507118
     26          9           0       -3.554462   -3.343302    2.658971
     27          9           0       -4.096626   -0.901788    3.708700
     28          9           0       -3.114732    1.307273    2.575180
     29          8           0       -2.845035    4.569212   -0.939684
     30          6           0       -4.089654    4.616104   -0.299795
     31          1           0       -4.756866    3.804754   -0.640603
     32          1           0       -4.542200    5.580863   -0.561799
     33          1           0       -3.990581    4.554198    0.798492
     34         15           0        2.721274    0.524084    0.540153
     35          6           0        3.957464   -0.870508    0.520065
     36          6           0        3.678277    2.012028   -0.138063
     37          6           0        2.306327    0.726479    2.383116
     38          6           0        3.703790   -2.095116   -0.386576
     39          1           0        4.034750   -1.219409    1.560806
     40          1           0        4.944194   -0.452207    0.276367
     41          6           0        5.111785    2.135569    0.385233
     42          6           0        3.741988    1.804540   -1.655248
     43          6           0        2.928371    3.307743    0.183747
     44          6           0        1.220539    1.789559    2.574561
     45          6           0        1.711826   -0.611962    2.841801
     46          6           0        3.526087    1.064899    3.238940
     47          6           0        3.914072   -1.750980   -1.860399
     48          6           0        4.717939   -3.166275    0.032349
     49          6           0        2.291546   -2.656715   -0.214703
     50          1           0        5.748518    1.289500    0.090729
     51          1           0        5.563895    3.039234   -0.055509
     52          1           0        5.162556    2.242424    1.475653
     53          1           0        4.183404    2.697641   -2.126465
     54          1           0        4.373448    0.945532   -1.919758
     55          1           0        2.750914    1.634585   -2.099084
     56          1           0        3.067678    3.601950    1.233137
     57          1           0        1.851017    3.240587   -0.015619
     58          1           0        3.337379    4.120546   -0.438160
     59          1           0        0.344792    1.595564    1.940246
     60          1           0        0.889103    1.767931    3.625295
     61          1           0        1.574091    2.805132    2.363880
     62          1           0        1.400070   -0.514808    3.893992
     63          1           0        0.818449   -0.880396    2.254707
     64          1           0        2.426870   -1.446045    2.792560
     65          1           0        3.245356    1.013018    4.303617
     66          1           0        4.362312    0.365299    3.086825
     67          1           0        3.888529    2.084948    3.050905
     68          1           0        4.936528   -1.385238   -2.046901
     69          1           0        3.197624   -0.986051   -2.197428
     70          1           0        3.751331   -2.639319   -2.489108
     71          1           0        4.549301   -3.491671    1.071348
     72          1           0        4.637504   -4.052362   -0.615643
     73          1           0        5.749943   -2.788474   -0.040383
     74          1           0        2.229734   -3.691149   -0.586558
     75          1           0        1.943014   -2.662321    0.826860
     76          1           0        1.544974   -2.163936   -0.885196
 ---------------------------------------------------------------------

 SCF Done:  E(RwB97XD) =  -3058.86842743     A.U. after   20 cycles

 The electronic state is 1-A.
 Alpha  occ. eigenvalues -- -101.69492 -89.21441 -77.23791 -24.84541 -24.84423
 Alpha  occ. eigenvalues --  -24.83912 -24.83476 -19.27896 -19.23648 -19.23623
 Alpha  occ. eigenvalues --  -14.43892 -10.39336 -10.39026 -10.38948 -10.38439
 Alpha  occ. eigenvalues --  -10.35895 -10.34922 -10.34476 -10.32511 -10.31739
 Alpha  occ. eigenvalues --  -10.31344 -10.31160 -10.30626 -10.30350 -10.30056
 Alpha  occ. eigenvalues --  -10.28753 -10.28684 -10.28533 -10.28373 -10.28140
 Alpha  occ. eigenvalues --  -10.27383 -10.27373 -10.27361 -10.27346 -10.27117
 Alpha  occ. eigenvalues --  -10.26813 -10.26722 -10.26619  -9.58054  -8.21510
 Alpha  occ. eigenvalues --   -7.32723  -7.31828  -7.31789  -6.68241  -6.16353
 Alpha  occ. eigenvalues --   -6.16261  -6.16252  -4.82914  -4.82875  -4.82654
 Alpha  occ. eigenvalues --   -3.57938  -2.26630  -2.26162  -2.23178  -1.37081
 Alpha  occ. eigenvalues --   -1.36097  -1.35047  -1.34664  -1.20520  -1.17474
 Alpha  occ. eigenvalues --   -1.09642  -1.02838  -0.97340  -0.96531  -0.95590
 Alpha  occ. eigenvalues --   -0.93803  -0.92230  -0.90981  -0.89283  -0.86137
 Alpha  occ. eigenvalues --   -0.84665  -0.83885  -0.81088  -0.80840  -0.78992
 Alpha  occ. eigenvalues --   -0.78748  -0.78672  -0.78537  -0.78050  -0.77731
 Alpha  occ. eigenvalues --   -0.77450  -0.75738  -0.75362  -0.71673  -0.70665
 Alpha  occ. eigenvalues --   -0.69783  -0.68842  -0.66739  -0.66254  -0.64881
 Alpha  occ. eigenvalues --   -0.64507  -0.63453  -0.63159  -0.62239  -0.61775
 Alpha  occ. eigenvalues --   -0.61185  -0.60320  -0.59623  -0.58586  -0.58007
 Alpha  occ. eigenvalues --   -0.57040  -0.56697  -0.56455  -0.56294  -0.55724
 Alpha  occ. eigenvalues --   -0.55564  -0.55180  -0.54957  -0.54756  -0.54432
 Alpha  occ. eigenvalues --   -0.53997  -0.53809  -0.53473  -0.53217  -0.52726
 Alpha  occ. eigenvalues --   -0.52292  -0.51901  -0.51439  -0.51351  -0.51227
 Alpha  occ. eigenvalues --   -0.50990  -0.50382  -0.49196  -0.48753  -0.48389
 Alpha  occ. eigenvalues --   -0.47947  -0.47835  -0.47416  -0.47254  -0.46823
 Alpha  occ. eigenvalues --   -0.46233  -0.46007  -0.45670  -0.45225  -0.44918
 Alpha  occ. eigenvalues --   -0.44570  -0.44109  -0.43810  -0.43658  -0.43151
 Alpha  occ. eigenvalues --   -0.42589  -0.42389  -0.41915  -0.41726  -0.41438
 Alpha  occ. eigenvalues --   -0.41070  -0.40994  -0.40820  -0.40573  -0.40197
 Alpha  occ. eigenvalues --   -0.39974  -0.39449  -0.39309  -0.38788  -0.38264
 Alpha  occ. eigenvalues --   -0.37448  -0.36992  -0.36443  -0.35737  -0.35085
 Alpha  occ. eigenvalues --   -0.34118  -0.33469  -0.31349  -0.31132  -0.29545
 Alpha  occ. eigenvalues --   -0.27877
 Alpha virt. eigenvalues --    0.01206   0.02384   0.05246   0.06807   0.07633
 Alpha virt. eigenvalues --    0.08097   0.08777   0.09882   0.10161   0.11238
 Alpha virt. eigenvalues --    0.11328   0.12232   0.12611   0.13102   0.13698

 Mulliken charges:
               1
     1  Pd  -0.006631
     2  C   -0.064968
     3  C   -0.297900
     4  H    0.172723
     5  C   -0.281192
     6  H    0.141571
     7  C    0.394628
     8  C   -0.442196
     9  H    0.177308
    10  C    0.151143
    11  C    0.022226
    12  C    0.303681
    13  C    0.141836
    14  C    0.195969
    15  C    0.184934
    16  C   -0.036419
    17  N   -0.397419
    18  S    0.847008
    19  O   -0.538787
    20  O   -0.509981
    21  C   -0.186699
    22  Cl  -0.122821
    23  H    0.204259
    24  H    0.197643
    25  F   -0.204096
    26  F   -0.197787
    27  F   -0.201167
    28  F   -0.217098
    29  O   -0.302794
    30  C   -0.226806
    31  H    0.137571
    32  H    0.157612
    33  H    0.137551
    34  P    0.317132
    35  C   -0.527220
    36  C    0.139625
    37  C    0.182180
    38  C    0.327265
    39  H    0.171563
    40  H    0.153562
    41  C   -0.436327
    42  C   -0.493617
    43  C   -0.481757
    44  C   -0.442881
    45  C   -0.493641
    46  C   -0.444093
    47  C   -0.512861
    48  C   -0.417840
    49  C   -0.444381
    50  H    0.142581
    51  H    0.145469
    52  H    0.146373
    53  H    0.150104
    54  H    0.161941
    55  H    0.156532
    56  H    0.142977
    57  H    0.176486
    58  H    0.145355
    59  H    0.133748
    60  H    0.141265
    61  H    0.147106
    62  H    0.151450
    63  H    0.163507
    64  H    0.151349
    65  H    0.145627
    66  H    0.153702
    67  H    0.138693
    68  H    0.140646
    69  H    0.165558
    70  H    0.151415
    71  H    0.137985
    72  H    0.141263
    73  H    0.136333
    74  H    0.173159
    75  H    0.169018
    76  H    0.160750
 Sum of Mulliken charges =   0.00000

 Dipole moment (field-independent basis, Debye):
    X=             12.0378    Y=              7.2740    Z=              3.4892  Tot=             14.4912
 Quadrupole moment (field-independent basis, Debye-Ang):
   XX=           -244.8226   YY=           -281.5037   ZZ=           -272.8561
   XY=            -17.9967   XZ=              4.9991   YZ=            -10.1371

 Normal termination of Gaussian 09 at Fri Mar  1 19:50:57 2024.
