 Gaussian 09, Revision D.01,
 Gaussian 09:  ES64L-G09RevD.01 24-Apr-2013

 ----------------------------------------------------------------------
 #p sp geom=allcheck scrf(solvent=dichloromethane,smd) wb97xd genecp te
 mperature=313 integral(grid=ultrafine)
 ----------------------------------------------------------------------

 Structure from the checkpoint file:  "pmes3_step6-sp.chk"
 -----
 title
 -----
 Charge =  0 Multiplicity = 1

                         Standard orientation:
 ---------------------------------------------------------------------
 Center     Atomic      Atomic             Coordinates (Angstroms)
 Number     Number       Type             X           Y           Z
 ---------------------------------------------------------------------
      1         46           0       -0.157419   -0.400910   -0.648941
      2         15           0        1.869517   -0.182968    0.500460
      3          6           0       -1.074113    1.323235   -0.285061
      4          6           0       -0.427602    2.541295   -0.506813
      5          1           0        0.613810    2.559909   -0.819961
      6          6           0       -1.067028    3.759082   -0.325140
      7          1           0       -0.544704    4.702478   -0.495218
      8          6           0       -2.405690    3.788580    0.077538
      9          6           0       -3.075695    2.584887    0.286020
     10          1           0       -4.121716    2.585413    0.584540
     11          6           0       -2.424955    1.347193    0.112622
     12          6           0       -3.203736    0.110268    0.333122
     13          6           0       -4.163976   -0.011176    1.340299
     14          6           0       -4.925703   -1.166589    1.491184
     15          6           0       -4.719899   -2.243617    0.634679
     16          6           0       -3.738735   -2.164851   -0.349276
     17          6           0       -2.983457   -0.999451   -0.513967
     18          7           0       -1.932025   -0.976691   -1.427174
     19         16           0       -2.226531   -0.958490   -3.024888
     20          8           0       -1.091397   -1.575707   -3.705062
     21          8           0       -3.594696   -1.394283   -3.288611
     22          6           0       -2.250796    0.783317   -3.547804
     23         17           0       -0.651996    1.491934   -3.752972
     24          1           0       -2.820330    1.351896   -2.800439
     25          1           0       -2.770410    0.775849   -4.514858
     26          9           0       -3.500140   -3.233883   -1.087388
     27          9           0       -5.423752   -3.352331    0.792413
     28          9           0       -5.829179   -1.250472    2.456765
     29          9           0       -4.379367    0.972470    2.215172
     30          8           0       -2.967909    5.006840    0.232187
     31          6           0       -4.303849    5.080108    0.641547
     32          1           0       -4.986066    4.610779   -0.089759
     33          1           0       -4.551712    6.146295    0.721523
     34          1           0       -4.460507    4.601527    1.624729
     35          6           0        3.051532   -1.232062   -0.458260
     36          6           0        2.500215   -2.186094   -1.340173
     37          6           0        4.456947   -1.086915   -0.392077
     38          6           0        3.336745   -2.941791   -2.161430
     39          6           0        5.251939   -1.854664   -1.247410
     40          6           0        4.720915   -2.777078   -2.148984
     41          1           0        2.886563   -3.677924   -2.833136
     42          1           0        6.337785   -1.736383   -1.188940
     43          6           0        1.542968   -0.934385    2.162152
     44          6           0        0.568638   -0.286488    2.965000
     45          6           0        2.081715   -2.172215    2.606703
     46          6           0        0.150736   -0.876389    4.158497
     47          6           0        1.611649   -2.714580    3.808115
     48          6           0        0.643804   -2.100382    4.598516
     49          1           0       -0.595018   -0.349141    4.760886
     50          1           0        2.035243   -3.666641    4.139273
     51          6           0        2.697840    1.453539    0.561378
     52          6           0        3.146733    2.116196    1.728851
     53          6           0        2.875413    2.074602   -0.704425
     54          6           0        3.671909    3.406077    1.606601
     55          6           0        3.414112    3.362129   -0.759897
     56          6           0        3.797174    4.060836    0.383054
     57          1           0        4.015731    3.909989    2.514542
     58          1           0        3.536351    3.830164   -1.740759
     59          6           0       -0.066052    1.032139    2.633333
     60          1           0        0.464980    1.618429    1.876415
     61          1           0       -1.085442    0.882057    2.251247
     62          1           0       -0.149137    1.647254    3.541661
     63          6           0        1.026222   -2.427114   -1.444523
     64          1           0        0.507769   -2.359770   -0.457696
     65          1           0        0.550758   -1.787218   -2.219213
     66          1           0        0.788336   -3.443415   -1.786919
     67          6           0        2.555053    1.408623   -2.012904
     68          1           0        3.321362    0.664675   -2.279359
     69          1           0        1.590645    0.874094   -1.996886
     70          1           0        2.508398    2.152833   -2.818786
     71          6           0        3.147633   -2.980059    1.916031
     72          1           0        2.824683   -3.373247    0.943024
     73          1           0        4.062603   -2.403816    1.734378
     74          1           0        3.416445   -3.837519    2.546709
     75          6           0        0.141133   -2.739153    5.857650
     76          1           0       -0.772078   -3.323825    5.656865
     77          1           0        0.883464   -3.426686    6.287333
     78          1           0       -0.115897   -1.986399    6.616930
     79          6           0        5.174626   -0.189583    0.575823
     80          1           0        5.224100    0.849479    0.217136
     81          1           0        4.688765   -0.163786    1.559218
     82          1           0        6.204768   -0.544635    0.718356
     83          6           0        5.603138   -3.557137   -3.076144
     84          1           0        5.202377   -4.564029   -3.261877
     85          1           0        5.678909   -3.052052   -4.053467
     86          1           0        6.622578   -3.656501   -2.677357
     87          6           0        3.172120    1.519244    3.109053
     88          1           0        2.210076    1.631301    3.628759
     89          1           0        3.401658    0.447068    3.110803
     90          1           0        3.930918    2.032303    3.715460
     91          6           0        4.319537    5.463405    0.300006
     92          1           0        3.491608    6.188807    0.367881
     93          1           0        5.015879    5.685167    1.121417
     94          1           0        4.836570    5.646658   -0.652790
 ---------------------------------------------------------------------

 SCF Done:  E(RwB97XD) =  -3594.76922803     A.U. after   26 cycles

 The electronic state is 1-A.
 Alpha  occ. eigenvalues -- -101.69397 -89.21469 -77.25888 -24.84515 -24.84411
 Alpha  occ. eigenvalues --  -24.83864 -24.83551 -19.27815 -19.23741 -19.23729
 Alpha  occ. eigenvalues --  -14.43984 -10.39296 -10.39031 -10.38915 -10.38404
 Alpha  occ. eigenvalues --  -10.35945 -10.34649 -10.34300 -10.32483 -10.31697
 Alpha  occ. eigenvalues --  -10.30900 -10.30883 -10.30820 -10.30810 -10.30790
 Alpha  occ. eigenvalues --  -10.30772 -10.30589 -10.30510 -10.30444 -10.30262
 Alpha  occ. eigenvalues --  -10.30241 -10.30000 -10.29871 -10.29519 -10.29412
 Alpha  occ. eigenvalues --  -10.28376 -10.28271 -10.28198 -10.28098 -10.28069
 Alpha  occ. eigenvalues --  -10.28018 -10.27943 -10.27927 -10.27881 -10.27639
 Alpha  occ. eigenvalues --  -10.27599 -10.27566 -10.27547 -10.27392 -10.27350
 Alpha  occ. eigenvalues --  -10.27257 -10.27017  -9.57960  -8.21563  -7.32631
 Alpha  occ. eigenvalues --   -7.31734  -7.31692  -6.70211  -6.16404  -6.16316
 Alpha  occ. eigenvalues --   -6.16297  -4.84915  -4.84878  -4.84608  -3.58168
 Alpha  occ. eigenvalues --   -2.26865  -2.26356  -2.23403  -1.37052  -1.36073
 Alpha  occ. eigenvalues --   -1.35047  -1.34646  -1.20639  -1.17357  -1.09808
 Alpha  occ. eigenvalues --   -1.02862  -0.97783  -0.97264  -0.96877  -0.96736
 Alpha  occ. eigenvalues --   -0.96506  -0.95357  -0.90120  -0.89392  -0.89182
 Alpha  occ. eigenvalues --   -0.88971  -0.88607  -0.88109  -0.87989  -0.86062
 Alpha  occ. eigenvalues --   -0.84414  -0.83728  -0.81765  -0.80801  -0.80564
 Alpha  occ. eigenvalues --   -0.79760  -0.79648  -0.78529  -0.78136  -0.78130
 Alpha  occ. eigenvalues --   -0.77738  -0.77130  -0.76922  -0.75559  -0.75295
 Alpha  occ. eigenvalues --   -0.71696  -0.70562  -0.69555  -0.68754  -0.67531
 Alpha  occ. eigenvalues --   -0.67133  -0.67044  -0.66608  -0.66454  -0.66366
 Alpha  occ. eigenvalues --   -0.66221  -0.64725  -0.64175  -0.63151  -0.62150
 Alpha  occ. eigenvalues --   -0.61732  -0.61094  -0.59650  -0.58790  -0.58638
 Alpha  occ. eigenvalues --   -0.58488  -0.58223  -0.57862  -0.57338  -0.56996
 Alpha  occ. eigenvalues --   -0.56816  -0.56492  -0.56184  -0.55894  -0.55472
 Alpha  occ. eigenvalues --   -0.54820  -0.54432  -0.54221  -0.53779  -0.53520
 Alpha  occ. eigenvalues --   -0.53444  -0.53127  -0.52510  -0.52314  -0.52046
 Alpha  occ. eigenvalues --   -0.51798  -0.51613  -0.51449  -0.51260  -0.50923
 Alpha  occ. eigenvalues --   -0.50559  -0.50096  -0.49939  -0.49834  -0.49665
 Alpha  occ. eigenvalues --   -0.49553  -0.49084  -0.48788  -0.48751  -0.48600
 Alpha  occ. eigenvalues --   -0.48538  -0.48171  -0.48070  -0.47638  -0.47602
 Alpha  occ. eigenvalues --   -0.47373  -0.47325  -0.47031  -0.46795  -0.46651
 Alpha  occ. eigenvalues --   -0.46311  -0.45323  -0.44980  -0.44720  -0.44538
 Alpha  occ. eigenvalues --   -0.44180  -0.43978  -0.43238  -0.43008  -0.42925
 Alpha  occ. eigenvalues --   -0.42430  -0.42276  -0.42037  -0.41764  -0.41655
 Alpha  occ. eigenvalues --   -0.41477  -0.41097  -0.40603  -0.40380  -0.40149
 Alpha  occ. eigenvalues --   -0.39925  -0.39224  -0.38918  -0.38666  -0.37610
 Alpha  occ. eigenvalues --   -0.37101  -0.35895  -0.35451  -0.35120  -0.34315
 Alpha  occ. eigenvalues --   -0.32633  -0.32496  -0.32039  -0.31762  -0.31470
 Alpha  occ. eigenvalues --   -0.31348  -0.31059  -0.29821  -0.29262  -0.27694
 Alpha virt. eigenvalues --    0.00883   0.02220   0.02685   0.03186   0.04905
 Alpha virt. eigenvalues --    0.05203   0.05388   0.05740   0.06137   0.07239
 Alpha virt. eigenvalues --    0.07644   0.08883   0.09047   0.09835   0.10426

 Mulliken charges:
               1
     1  Pd  -0.041422
     2  P    0.188640
     3  C   -0.103084
     4  C   -0.111617
     5  H    0.200369
     6  C   -0.366529
     7  H    0.133945
     8  C    0.412777
     9  C   -0.469574
    10  H    0.173173
    11  C    0.079951
    12  C    0.034908
    13  C    0.288115
    14  C    0.139573
    15  C    0.201688
    16  C    0.185272
    17  C    0.027447
    18  N   -0.427618
    19  S    0.850116
    20  O   -0.536039
    21  O   -0.517840
    22  C   -0.177208
    23  Cl  -0.109602
    24  H    0.193502
    25  H    0.204060
    26  F   -0.205546
    27  F   -0.198576
    28  F   -0.201469
    29  F   -0.218719
    30  O   -0.303016
    31  C   -0.225315
    32  H    0.135379
    33  H    0.157374
    34  H    0.137025
    35  C   -0.292149
    36  C    0.182438
    37  C    0.181468
    38  C   -0.452126
    39  C   -0.415255
    40  C    0.244545
    41  H    0.143508
    42  H    0.137736
    43  C   -0.169113
    44  C    0.155752
    45  C    0.232409
    46  C   -0.429698
    47  C   -0.427929
    48  C    0.240332
    49  H    0.140896
    50  H    0.135706
    51  C   -0.265728
    52  C    0.284611
    53  C    0.143234
    54  C   -0.424682
    55  C   -0.388087
    56  C    0.215431
    57  H    0.137058
    58  H    0.137105
    59  C   -0.353818
    60  H    0.143632
    61  H    0.160992
    62  H    0.170992
    63  C   -0.186839
    64  H    0.180550
    65  H    0.166912
    66  H    0.198478
    67  C   -0.389908
    68  H    0.178754
    69  H    0.142733
    70  H    0.158859
    71  C   -0.298669
    72  H    0.136781
    73  H    0.141082
    74  H    0.146621
    75  C   -0.406736
    76  H    0.152446
    77  H    0.145179
    78  H    0.146511
    79  C   -0.346178
    80  H    0.163433
    81  H    0.130455
    82  H    0.156360
    83  C   -0.405918
    84  H    0.147820
    85  H    0.153478
    86  H    0.145385
    87  C   -0.358327
    88  H    0.161260
    89  H    0.143834
    90  H    0.157913
    91  C   -0.406131
    92  H    0.152479
    93  H    0.145162
    94  H    0.146821
 Sum of Mulliken charges =   0.00000

 Dipole moment (field-independent basis, Debye):
    X=             11.5906    Y=              3.7457    Z=              6.2611  Tot=             13.6958
 Quadrupole moment (field-independent basis, Debye-Ang):
   XX=           -327.7711   YY=           -327.1359   ZZ=           -344.6408
   XY=            -27.9650   XZ=            -10.0914   YZ=             -9.8780

 Normal termination of Gaussian 09 at Tue Nov 28 23:06:15 2023.
