 Gaussian 09, Revision D.01,
 Gaussian 09:  ES64L-G09RevD.01 24-Apr-2013

 ----------------------------------------------------------------------
 #p sp geom=allcheck scrf(solvent=dichloromethane,smd) wb97xd genecp te
 mperature=313 integral(grid=ultrafine)
 ----------------------------------------------------------------------

 Structure from the checkpoint file:  "ptbu3_step11-sp.chk"
 -----
 title
 -----
 Charge =  0 Multiplicity = 1

                         Standard orientation:
 ---------------------------------------------------------------------
 Center     Atomic      Atomic             Coordinates (Angstroms)
 Number     Number       Type             X           Y           Z
 ---------------------------------------------------------------------
      1         46           0       -0.561841   -0.493513    0.268013
      2         15           0       -2.631629   -0.263114   -0.709976
      3          6           0       -4.058295    0.006267    0.529734
      4          6           0       -3.770030    1.278749    1.336806
      5          1           0       -3.712317    2.187291    0.727892
      6          1           0       -4.586082    1.420548    2.063982
      7          1           0       -2.835511    1.171361    1.905504
      8          6           0       -5.441031    0.105602   -0.116957
      9          1           0       -5.693282   -0.776335   -0.719638
     10          1           0       -5.543677    0.995636   -0.751768
     11          1           0       -6.199248    0.188325    0.679302
     12          6           0       -4.055756   -1.128456    1.561184
     13          1           0       -4.366707   -2.095945    1.149105
     14          1           0       -3.070977   -1.239701    2.040841
     15          1           0       -4.776136   -0.869212    2.353715
     16          6           0       -2.824273    0.893088   -2.209652
     17          6           0       -1.462687    0.986167   -2.913213
     18          1           0       -1.130499    0.036579   -3.345059
     19          1           0       -1.547715    1.712789   -3.737599
     20          1           0       -0.681490    1.338407   -2.225053
     21          6           0       -3.896692    0.431625   -3.199669
     22          1           0       -3.963470    1.170400   -4.015242
     23          1           0       -3.657970   -0.534871   -3.661403
     24          1           0       -4.891851    0.357027   -2.742241
     25          6           0       -3.163430    2.312221   -1.739846
     26          1           0       -3.144592    2.973565   -2.621086
     27          1           0       -4.163970    2.394190   -1.296189
     28          1           0       -2.417974    2.696344   -1.030379
     29          6           0       -2.648244   -2.093385   -1.282358
     30          6           0       -4.019277   -2.692246   -1.589814
     31          1           0       -4.536697   -2.155317   -2.396071
     32          1           0       -4.679568   -2.715101   -0.713692
     33          1           0       -3.885529   -3.735473   -1.921354
     34          6           0       -1.965768   -2.889197   -0.151712
     35          1           0       -1.872165   -3.943334   -0.461376
     36          1           0       -2.492417   -2.874387    0.805466
     37          1           0       -0.909595   -2.584204    0.031874
     38          6           0       -1.744519   -2.260421   -2.509932
     39          1           0       -1.625382   -3.338888   -2.703027
     40          1           0       -2.162434   -1.812510   -3.419887
     41          1           0       -0.740446   -1.844247   -2.337185
     42          6           0        0.251558    1.304746    0.194949
     43          6           0       -0.446057    2.415322    0.660324
     44          1           0       -1.463650    2.298062    1.023407
     45          6           0        0.118031    3.692326    0.698959
     46          1           0       -0.477061    4.526127    1.072444
     47          6           0        1.433958    3.865656    0.269575
     48          6           0        2.155347    2.755840   -0.175504
     49          1           0        3.189698    2.920798   -0.474265
     50          6           0        1.595978    1.472566   -0.220439
     51          6           0        2.458536    0.344141   -0.636527
     52          6           0        3.444625    0.475285   -1.619292
     53          6           0        4.301352   -0.572190   -1.945166
     54          6           0        4.168927   -1.796246   -1.297264
     55          6           0        3.163316   -1.969973   -0.352332
     56          6           0        2.317206   -0.911806   -0.000555
     57          7           0        1.246944   -1.134695    0.854262
     58         16           0        1.421716   -1.577240    2.407160
     59          8           0        0.321424   -2.473349    2.745586
     60          8           0        2.808929   -1.924606    2.696220
     61          6           0        1.164808   -0.064443    3.386303
     62         17           0       -0.526951    0.409992    3.556958
     63          1           0        1.733167    0.745745    2.910756
     64          1           0        1.569712   -0.298874    4.379324
     65          9           0        2.985936   -3.173504    0.164485
     66          9           0        4.959592   -2.803533   -1.626293
     67          9           0        5.228341   -0.412109   -2.877698
     68          9           0        3.599726    1.609122   -2.299378
     69          8           0        2.091853    5.044158    0.261748
     70          6           0        1.425233    6.184625    0.720049
     71          1           0        2.131174    7.020304    0.632567
     72          1           0        1.119042    6.086713    1.777114
     73          1           0        0.529951    6.410732    0.113244
 ---------------------------------------------------------------------

 SCF Done:  E(RwB97XD) =  -3019.53245408     A.U. after   25 cycles

 The electronic state is 1-A.
 Alpha  occ. eigenvalues -- -101.69708 -89.21541 -77.23843 -24.84519 -24.84325
 Alpha  occ. eigenvalues --  -24.83824 -24.83523 -19.27962 -19.23849 -19.23673
 Alpha  occ. eigenvalues --  -14.43955 -10.39295 -10.38948 -10.38869 -10.38333
 Alpha  occ. eigenvalues --  -10.36094 -10.34859 -10.34563 -10.32604 -10.31817
 Alpha  occ. eigenvalues --  -10.31781 -10.31578 -10.31531 -10.30954 -10.30159
 Alpha  occ. eigenvalues --  -10.28529 -10.28488 -10.28477 -10.28403 -10.27388
 Alpha  occ. eigenvalues --  -10.27375 -10.27364 -10.27350 -10.27285 -10.27251
 Alpha  occ. eigenvalues --  -10.27232 -10.26758  -9.58260  -8.21620  -7.32926
 Alpha  occ. eigenvalues --   -7.32039  -7.31996  -6.68284  -6.16471  -6.16379
 Alpha  occ. eigenvalues --   -6.16341  -4.82956  -4.82921  -4.82688  -3.57776
 Alpha  occ. eigenvalues --   -2.26543  -2.25967  -2.22985  -1.37042  -1.36077
 Alpha  occ. eigenvalues --   -1.35042  -1.34636  -1.20655  -1.17571  -1.09826
 Alpha  occ. eigenvalues --   -1.02906  -0.97340  -0.96600  -0.95610  -0.93797
 Alpha  occ. eigenvalues --   -0.91246  -0.91033  -0.89140  -0.86107  -0.85381
 Alpha  occ. eigenvalues --   -0.83513  -0.80812  -0.79619  -0.78887  -0.78600
 Alpha  occ. eigenvalues --   -0.78388  -0.78331  -0.78000  -0.77045  -0.75655
 Alpha  occ. eigenvalues --   -0.75520  -0.74706  -0.70911  -0.69766  -0.68828
 Alpha  occ. eigenvalues --   -0.66877  -0.66012  -0.64833  -0.64699  -0.64501
 Alpha  occ. eigenvalues --   -0.63145  -0.62193  -0.61847  -0.61279  -0.61069
 Alpha  occ. eigenvalues --   -0.59529  -0.58526  -0.57908  -0.57421  -0.56584
 Alpha  occ. eigenvalues --   -0.56328  -0.56105  -0.55826  -0.55803  -0.55616
 Alpha  occ. eigenvalues --   -0.55084  -0.54646  -0.54009  -0.53830  -0.53674
 Alpha  occ. eigenvalues --   -0.53496  -0.53240  -0.52294  -0.52124  -0.51694
 Alpha  occ. eigenvalues --   -0.51552  -0.51410  -0.50768  -0.50456  -0.49598
 Alpha  occ. eigenvalues --   -0.49171  -0.48483  -0.48019  -0.47941  -0.47539
 Alpha  occ. eigenvalues --   -0.47168  -0.46827  -0.46300  -0.46089  -0.45765
 Alpha  occ. eigenvalues --   -0.45378  -0.45131  -0.44696  -0.44413  -0.44316
 Alpha  occ. eigenvalues --   -0.43694  -0.43159  -0.43008  -0.42738  -0.42423
 Alpha  occ. eigenvalues --   -0.42011  -0.41874  -0.41281  -0.40886  -0.40741
 Alpha  occ. eigenvalues --   -0.39901  -0.39777  -0.39409  -0.39113  -0.38750
 Alpha  occ. eigenvalues --   -0.37987  -0.37269  -0.37019  -0.36352  -0.35578
 Alpha  occ. eigenvalues --   -0.35219  -0.34106  -0.33849  -0.31003  -0.30936
 Alpha  occ. eigenvalues --   -0.29206  -0.27961
 Alpha virt. eigenvalues --    0.01107   0.02194   0.05400   0.06375   0.07571
 Alpha virt. eigenvalues --    0.08607   0.08762   0.10003   0.10343   0.10890
 Alpha virt. eigenvalues --    0.11407   0.12374   0.12500   0.13002   0.13448

 Mulliken charges:
               1
     1  Pd  -0.016340
     2  P    0.187923
     3  C    0.197198
     4  C   -0.485931
     5  H    0.166267
     6  H    0.152389
     7  H    0.131196
     8  C   -0.440549
     9  H    0.157844
    10  H    0.139343
    11  H    0.145500
    12  C   -0.522626
    13  H    0.144419
    14  H    0.184531
    15  H    0.152001
    16  C    0.135819
    17  C   -0.451915
    18  H    0.158732
    19  H    0.141789
    20  H    0.164273
    21  C   -0.440673
    22  H    0.144302
    23  H    0.134631
    24  H    0.155947
    25  C   -0.483302
    26  H    0.147085
    27  H    0.142216
    28  H    0.151691
    29  C    0.170163
    30  C   -0.432791
    31  H    0.158167
    32  H    0.138170
    33  H    0.146464
    34  C   -0.475437
    35  H    0.165162
    36  H    0.187031
    37  H    0.183903
    38  C   -0.501047
    39  H    0.151845
    40  H    0.147439
    41  H    0.179095
    42  C   -0.087408
    43  C   -0.265838
    44  H    0.194749
    45  C   -0.370041
    46  H    0.165391
    47  C    0.395991
    48  C   -0.384352
    49  H    0.143267
    50  C    0.152978
    51  C    0.034889
    52  C    0.281629
    53  C    0.137514
    54  C    0.208054
    55  C    0.186556
    56  C   -0.009523
    57  N   -0.400744
    58  S    0.836536
    59  O   -0.517476
    60  O   -0.514401
    61  C   -0.183798
    62  Cl  -0.105959
    63  H    0.200295
    64  H    0.207224
    65  F   -0.205798
    66  F   -0.197908
    67  F   -0.201561
    68  F   -0.212809
    69  O   -0.301371
    70  C   -0.229452
    71  H    0.158111
    72  H    0.136906
    73  H    0.136426
 Sum of Mulliken charges =   0.00000

 Dipole moment (field-independent basis, Debye):
    X=            -13.8285    Y=              5.9264    Z=             -3.9122  Tot=             15.5452
 Quadrupole moment (field-independent basis, Debye-Ang):
   XX=           -256.8304   YY=           -252.6074   ZZ=           -267.2277
   XY=             14.3420   XZ=             11.1916   YZ=             22.3327

 Normal termination of Gaussian 09 at Tue Nov 28 20:35:18 2023.
