 Gaussian 09, Revision D.01,
 Gaussian 09:  ES64L-G09RevD.01 24-Apr-2013

 ----------------------------------------------------------------------
 #p sp geom=allcheck scrf(solvent=dichloromethane,smd) wb97xd genecp te
 mperature=313 integral(grid=ultrafine)
 ----------------------------------------------------------------------

 Structure from the checkpoint file:  "ts_biphep-v1-released-sp.chk"
 -----
 title
 -----
 Charge =  0 Multiplicity = 1

                         Standard orientation:
 ---------------------------------------------------------------------
 Center     Atomic      Atomic             Coordinates (Angstroms)
 Number     Number       Type             X           Y           Z
 ---------------------------------------------------------------------
      1          6           0       -1.954932    0.278566   -0.965119
      2          6           0       -2.224059    0.819860   -2.243710
      3          1           0       -1.605642    0.544497   -3.100453
      4          6           0       -3.221138    1.771716   -2.373355
      5          1           0       -3.390486    2.269153   -3.330232
      6          6           0       -4.015956    2.164068   -1.279036
      7          6           0       -3.874038    1.510487   -0.057856
      8          1           0       -4.539921    1.710156    0.780601
      9          6           0       -2.881887    0.528455    0.084639
     10          6           0       -2.748983   -0.451004    1.136179
     11          6           0       -3.170720   -0.397955    2.463709
     12          6           0       -2.825179   -1.409368    3.349988
     13          6           0       -2.066726   -2.500486    2.913092
     14          6           0       -1.652429   -2.589940    1.586320
     15          6           0       -2.010698   -1.581214    0.689436
     16          7           0       -1.556904   -1.468754   -0.634121
     17         16           0       -1.985871   -2.581012   -1.807529
     18          8           0       -1.243424   -2.195065   -2.999102
     19          8           0       -1.931247   -3.936250   -1.287920
     20          6           0       -3.731604   -2.171713   -2.048617
     21         17           0       -4.465701   -3.243747   -3.233660
     22          1           0       -3.788503   -1.128531   -2.386371
     23          1           0       -4.221903   -2.294958   -1.073391
     24          9           0       -0.850101   -3.581411    1.245326
     25          9           0       -1.685444   -3.418150    3.788611
     26          9           0       -3.151898   -1.315894    4.631549
     27          9           0       -3.828651    0.660817    2.928467
     28          8           0       -4.902067    3.162858   -1.518285
     29          6           0       -5.711706    3.587679   -0.463655
     30          1           0       -5.114316    3.947602    0.394501
     31          1           0       -6.384042    2.786322   -0.106306
     32          1           0       -6.323602    4.416062   -0.843935
     33         15           0        2.177558   -1.154525   -0.404165
     34          6           0        3.686736   -0.647892   -1.307220
     35          6           0        4.960401   -1.115552   -0.963792
     36          6           0        6.076302   -0.697960   -1.682097
     37          6           0        5.929894    0.188427   -2.750322
     38          6           0        4.663789    0.649913   -3.102890
     39          6           0        3.545114    0.228061   -2.386646
     40          1           0        2.546079    0.584609   -2.652186
     41          1           0        4.544437    1.342601   -3.939060
     42          1           0        6.807845    0.517126   -3.311718
     43          1           0        7.067920   -1.066209   -1.408022
     44          1           0        5.082729   -1.807126   -0.127797
     45          6           0        2.445849   -0.656150    1.340513
     46          6           0        1.930066   -1.481363    2.352882
     47          6           0        1.974903   -1.095763    3.688182
     48          6           0        2.545576    0.126545    4.037599
     49          6           0        3.026714    0.967375    3.040678
     50          6           0        2.958755    0.612583    1.685936
     51          6           0        3.409538    1.636707    0.695407
     52          6           0        4.776285    1.913202    0.593532
     53          6           0        5.253921    2.904648   -0.258352
     54          6           0        4.355412    3.665628   -1.000002
     55          6           0        2.988996    3.418120   -0.899052
     56          6           0        2.499644    2.401582   -0.071382
     57         15           0        0.713405    1.977983   -0.012571
     58          6           0       -0.145488    3.257068   -0.986926
     59          6           0       -1.126787    4.087276   -0.435137
     60          6           0       -1.868022    4.938294   -1.253488
     61          6           0       -1.632269    4.978009   -2.625150
     62          6           0       -0.662929    4.145509   -3.185053
     63          6           0        0.060304    3.276072   -2.375236
     64          1           0        0.782602    2.590196   -2.826990
     65          1           0       -0.486006    4.155742   -4.263148
     66          1           0       -2.217075    5.645033   -3.262538
     67          1           0       -2.642778    5.569985   -0.813234
     68          1           0       -1.327247    4.055761    0.637279
     69          6           0        0.299494    2.336188    1.730212
     70          6           0       -0.350509    1.363593    2.490818
     71          6           0       -0.661207    1.604089    3.827993
     72          6           0       -0.304974    2.815687    4.414699
     73          6           0        0.366126    3.785376    3.665576
     74          6           0        0.667336    3.549512    2.327428
     75          1           0        1.198375    4.306034    1.743321
     76          6           0        1.428221   -3.648389   -1.283888
     77          6           0        1.428388   -5.040561   -1.343939
     78          6           0        2.278806   -5.771960   -0.519503
     79          6           0        3.130695   -5.110242    0.367282
     80          6           0        3.128062   -3.720359    0.434090
     81          6           0        2.272171   -2.978145   -0.392705
     82          1           0        3.777799   -3.214107    1.152054
     83          1           0        3.795315   -5.682858    1.018832
     84          1           0        2.273328   -6.864001   -0.557561
     85          1           0        0.738944   -5.545402   -2.023340
     86          1           0        0.756453   -3.078599   -1.929562
     87          1           0        0.655314    4.731765    4.129055
     88          1           0       -0.544254    3.006177    5.463727
     89          1           0       -1.182635    0.840395    4.409590
     90          1           0       -0.585128    0.403099    2.029860
     91          1           0        2.290400    4.030310   -1.471848
     92          1           0        4.714851    4.459503   -1.658832
     93          1           0        6.328416    3.083989   -0.336751
     94          1           0        5.473921    1.318183    1.187095
     95          1           0        3.431808    1.947804    3.301512
     96          1           0        2.591298    0.438951    5.082987
     97          1           0        1.558873   -1.754799    4.453912
     98          1           0        1.476465   -2.438684    2.086492
     99         46           0        0.053746   -0.119189   -0.711749
 ---------------------------------------------------------------------

 SCF Done:  E(RwB97XD) =  -4276.03803532     A.U. after   25 cycles

 The electronic state is 1-A.
 Alpha  occ. eigenvalues -- -101.70480 -89.23154 -77.24409 -77.23585 -24.84792
 Alpha  occ. eigenvalues --  -24.84732 -24.84274 -24.84123 -19.27376 -19.25498
 Alpha  occ. eigenvalues --  -19.25348 -14.49254 -10.39631 -10.39576 -10.39521
 Alpha  occ. eigenvalues --  -10.39193 -10.37116 -10.35263 -10.33924 -10.33587
 Alpha  occ. eigenvalues --  -10.32363 -10.32005 -10.31028 -10.30993 -10.30780
 Alpha  occ. eigenvalues --  -10.30662 -10.30295 -10.30118 -10.30056 -10.29977
 Alpha  occ. eigenvalues --  -10.29627 -10.29560 -10.29557 -10.29453 -10.29447
 Alpha  occ. eigenvalues --  -10.29439 -10.29427 -10.29413 -10.29399 -10.29354
 Alpha  occ. eigenvalues --  -10.29329 -10.29282 -10.29275 -10.29222 -10.29214
 Alpha  occ. eigenvalues --  -10.29210 -10.29163 -10.29128 -10.29122 -10.29099
 Alpha  occ. eigenvalues --  -10.29099 -10.29093 -10.29078 -10.29062 -10.29058
 Alpha  occ. eigenvalues --  -10.29052 -10.28990 -10.28968 -10.28796 -10.28711
 Alpha  occ. eigenvalues --  -10.28601 -10.28424  -9.59027  -8.23319  -7.33713
 Alpha  occ. eigenvalues --   -7.32792  -7.32755  -6.68828  -6.68077  -6.18204
 Alpha  occ. eigenvalues --   -6.18036  -6.18020  -4.83522  -4.83517  -4.83180
 Alpha  occ. eigenvalues --   -4.82782  -4.82757  -4.82394  -3.55026  -2.23572
 Alpha  occ. eigenvalues --   -2.22987  -2.21073  -1.37340  -1.36427  -1.35486
 Alpha  occ. eigenvalues --   -1.35006  -1.22349  -1.16859  -1.11471  -1.05959
 Alpha  occ. eigenvalues --   -0.98290  -0.98148  -0.97606  -0.96629  -0.96281
 Alpha  occ. eigenvalues --   -0.96045  -0.95902  -0.95568  -0.95433  -0.89690
 Alpha  occ. eigenvalues --   -0.88707  -0.87834  -0.87670  -0.87074  -0.85158
 Alpha  occ. eigenvalues --   -0.84973  -0.84945  -0.84881  -0.84783  -0.84646
 Alpha  occ. eigenvalues --   -0.84507  -0.84441  -0.84256  -0.83998  -0.82565
 Alpha  occ. eigenvalues --   -0.82189  -0.79147  -0.76121  -0.75994  -0.75377
 Alpha  occ. eigenvalues --   -0.75148  -0.72185  -0.71345  -0.70542  -0.70448
 Alpha  occ. eigenvalues --   -0.70375  -0.70331  -0.70072  -0.69700  -0.69642
 Alpha  occ. eigenvalues --   -0.69235  -0.69122  -0.69013  -0.67545  -0.66604
 Alpha  occ. eigenvalues --   -0.66441  -0.66199  -0.65855  -0.64905  -0.63761
 Alpha  occ. eigenvalues --   -0.63383  -0.61993  -0.61572  -0.61413  -0.60955
 Alpha  occ. eigenvalues --   -0.60749  -0.60167  -0.59900  -0.59394  -0.59223
 Alpha  occ. eigenvalues --   -0.58954  -0.58597  -0.57608  -0.57248  -0.56914
 Alpha  occ. eigenvalues --   -0.56280  -0.56097  -0.55928  -0.55298  -0.55088
 Alpha  occ. eigenvalues --   -0.54755  -0.54688  -0.54508  -0.54401  -0.54105
 Alpha  occ. eigenvalues --   -0.53871  -0.53829  -0.53746  -0.53564  -0.53438
 Alpha  occ. eigenvalues --   -0.53390  -0.53232  -0.53019  -0.52176  -0.51838
 Alpha  occ. eigenvalues --   -0.51409  -0.51168  -0.51051  -0.50810  -0.50701
 Alpha  occ. eigenvalues --   -0.50490  -0.50345  -0.50264  -0.49970  -0.49517
 Alpha  occ. eigenvalues --   -0.49139  -0.49019  -0.48754  -0.48498  -0.48120
 Alpha  occ. eigenvalues --   -0.47528  -0.47360  -0.47018  -0.46401  -0.46189
 Alpha  occ. eigenvalues --   -0.45765  -0.45339  -0.45167  -0.44888  -0.44701
 Alpha  occ. eigenvalues --   -0.44207  -0.43932  -0.43394  -0.43146  -0.42970
 Alpha  occ. eigenvalues --   -0.42737  -0.42509  -0.42277  -0.42233  -0.42093
 Alpha  occ. eigenvalues --   -0.41839  -0.41739  -0.41163  -0.40880  -0.40746
 Alpha  occ. eigenvalues --   -0.40710  -0.40458  -0.39906  -0.39535  -0.38910
 Alpha  occ. eigenvalues --   -0.38620  -0.36394  -0.36160  -0.35339  -0.34778
 Alpha  occ. eigenvalues --   -0.34464  -0.34335  -0.33876  -0.33735  -0.33654
 Alpha  occ. eigenvalues --   -0.33537  -0.33417  -0.33148  -0.33036  -0.32746
 Alpha  occ. eigenvalues --   -0.32229  -0.31681  -0.31398  -0.30502  -0.29806
 Alpha  occ. eigenvalues --   -0.29178  -0.21931
 Alpha virt. eigenvalues --    0.01343   0.01766   0.02274   0.02664   0.02975
 Alpha virt. eigenvalues --    0.03264   0.04188   0.04443   0.04614   0.04840
 Alpha virt. eigenvalues --    0.05232   0.05694   0.06168   0.06361   0.06552

 Mulliken charges:
               1
     1  C    0.291338
     2  C   -0.248754
     3  H    0.206765
     4  C   -0.210787
     5  H    0.146639
     6  C    0.377399
     7  C   -0.463915
     8  H    0.169548
     9  C   -0.000011
    10  C   -0.176815
    11  C    0.248139
    12  C    0.199801
    13  C    0.214032
    14  C    0.139590
    15  C    0.067568
    16  N   -0.275945
    17  S    0.797462
    18  O   -0.495512
    19  O   -0.475370
    20  C   -0.159467
    21  Cl  -0.112215
    22  H    0.203662
    23  H    0.209101
    24  F   -0.194186
    25  F   -0.200752
    26  F   -0.202661
    27  F   -0.213443
    28  O   -0.310422
    29  C   -0.231187
    30  H    0.134822
    31  H    0.133503
    32  H    0.156283
    33  P    0.309517
    34  C    0.096298
    35  C   -0.243932
    36  C   -0.166052
    37  C   -0.117965
    38  C   -0.232579
    39  C   -0.140237
    40  H    0.214882
    41  H    0.147532
    42  H    0.156682
    43  H    0.155044
    44  H    0.157197
    45  C    0.083191
    46  C   -0.226084
    47  C   -0.198438
    48  C   -0.121651
    49  C   -0.283274
    50  C    0.119241
    51  C    0.152276
    52  C   -0.276983
    53  C   -0.120306
    54  C   -0.225133
    55  C   -0.077900
    56  C   -0.196129
    57  P    0.385213
    58  C    0.145506
    59  C   -0.232400
    60  C   -0.158240
    61  C   -0.143522
    62  C   -0.171478
    63  C   -0.316981
    64  H    0.197828
    65  H    0.153455
    66  H    0.155360
    67  H    0.154044
    68  H    0.183059
    69  C   -0.084855
    70  C    0.028142
    71  C   -0.271847
    72  C   -0.098498
    73  C   -0.171289
    74  C   -0.217941
    75  H    0.172339
    76  C   -0.205668
    77  C   -0.184844
    78  C   -0.127053
    79  C   -0.161618
    80  C   -0.270659
    81  C    0.056133
    82  H    0.194444
    83  H    0.157713
    84  H    0.158827
    85  H    0.149205
    86  H    0.199525
    87  H    0.156559
    88  H    0.157875
    89  H    0.166603
    90  H    0.208064
    91  H    0.183685
    92  H    0.152204
    93  H    0.153049
    94  H    0.153575
    95  H    0.160266
    96  H    0.152840
    97  H    0.152063
    98  H    0.205986
    99  Pd  -0.366074
 Sum of Mulliken charges =   0.00000

 Dipole moment (field-independent basis, Debye):
    X=              5.0168    Y=              8.9854    Z=              3.2225  Tot=             10.7838
 Quadrupole moment (field-independent basis, Debye-Ang):
   XX=           -361.3322   YY=           -392.2342   ZZ=           -394.1339
   XY=            -13.8439   XZ=             -4.3196   YZ=            -13.8453

 Normal termination of Gaussian 09 at Tue Apr  9 21:39:06 2024.
