 Gaussian 09, Revision D.01,
 Gaussian 09:  ES64L-G09RevD.01 24-Apr-2013

 ----------------------------------------------------------------------
 #p sp geom=allcheck scrf(solvent=dichloromethane,smd) wb97xd genecp te
 mperature=373 integral(grid=ultrafine)
 ----------------------------------------------------------------------

 Structure from the checkpoint file:  "ts_dppeG6-v2-wb97xd-sp.chk"
 -----
 title
 -----
 Charge =  0 Multiplicity = 1

                         Standard orientation:
 ---------------------------------------------------------------------
 Center     Atomic      Atomic             Coordinates (Angstroms)
 Number     Number       Type             X           Y           Z
 ---------------------------------------------------------------------
      1          6           0        0.613789   -0.995121    1.916206
      2          6           0        1.580053   -1.015002    2.951558
      3          1           0        2.083732   -0.091480    3.242580
      4          6           0        1.935360   -2.232492    3.506599
      5          1           0        2.734564   -2.260141    4.252651
      6          6           0        1.307096   -3.429119    3.114612
      7          6           0        0.253808   -3.390199    2.211038
      8          1           0       -0.303715   -4.302329    2.001079
      9          6           0       -0.145377   -2.174609    1.630978
     10          6           0       -1.403366   -1.860194    0.987002
     11          6           0       -2.322128   -2.654558    0.267065
     12          6           0       -3.538407   -2.122493   -0.145148
     13          6           0       -3.870420   -0.794043    0.137228
     14          6           0       -2.970767    0.038211    0.793454
     15          6           0       -1.741095   -0.486740    1.189273
     16          7           0       -0.706939    0.242447    1.787343
     17         16           0       -0.948422    1.504670    2.848484
     18          8           0        0.388654    1.955311    3.222413
     19          8           0       -1.902879    2.466967    2.306479
     20          6           0       -1.685614    0.702960    4.248718
     21          1           0       -0.981262   -0.057963    4.609367
     22          1           0       -2.634273    0.250438    3.932180
     23         46           0        0.910406    0.456397    0.500300
     24         15           0        0.709938    2.312333   -0.956688
     25         15           0        2.529166   -0.287766   -0.920988
     26          6           0        3.055457    1.168413   -1.937497
     27          1           0        3.674363    1.807142   -1.284766
     28          1           0        3.673499    0.854819   -2.793922
     29          6           0        1.812869    1.925717   -2.405095
     30          1           0        1.230991    1.302216   -3.102098
     31          1           0        2.085130    2.846350   -2.942494
     32          6           0        4.041722   -1.108523   -0.346590
     33          6           0        5.336308   -0.658919   -0.629452
     34          1           0        5.494179    0.219113   -1.259570
     35          6           0        6.439489   -1.332435   -0.105493
     36          1           0        7.447868   -0.976844   -0.330476
     37          6           0        6.257090   -2.454417    0.700762
     38          1           0        7.123483   -2.978626    1.111054
     39          6           0        4.967165   -2.903074    0.988643
     40          1           0        4.815323   -3.775458    1.628363
     41          6           0        3.862906   -2.232315    0.474324
     42          1           0        2.853800   -2.576814    0.718796
     43          6           0        1.847395   -1.431323   -2.175152
     44          6           0        0.482047   -1.733439   -2.149824
     45          1           0       -0.142078   -1.316018   -1.354466
     46          6           0       -0.071495   -2.570951   -3.117803
     47          1           0       -1.136432   -2.811182   -3.080808
     48          6           0        0.739079   -3.115194   -4.110794
     49          1           0        0.308184   -3.776546   -4.866290
     50          6           0        2.106060   -2.829093   -4.133370
     51          1           0        2.743900   -3.266985   -4.904932
     52          6           0        2.660315   -1.993540   -3.168283
     53          1           0        3.734398   -1.786513   -3.177687
     54          6           0       -0.978885    2.435293   -1.621380
     55          6           0       -1.475255    1.418893   -2.451259
     56          1           0       -0.815847    0.624975   -2.810649
     57          6           0       -2.821280    1.392733   -2.803356
     58          1           0       -3.199847    0.588950   -3.438364
     59          6           0       -3.689882    2.373258   -2.325429
     60          1           0       -4.749645    2.337170   -2.584614
     61          6           0       -3.204620    3.379601   -1.492578
     62          1           0       -3.882917    4.141328   -1.101454
     63          6           0       -1.858179    3.412077   -1.137009
     64          1           0       -1.492837    4.188123   -0.461184
     65          6           0        1.159111    4.003603   -0.452834
     66          6           0        1.241439    5.058452   -1.372769
     67          1           0        1.023326    4.883286   -2.430040
     68          6           0        1.581524    6.336757   -0.941595
     69          1           0        1.643261    7.156326   -1.661635
     70          6           0        1.835702    6.571961    0.411538
     71          1           0        2.100687    7.577136    0.748643
     72          6           0        1.744197    5.529693    1.330718
     73          1           0        1.931719    5.712382    2.391210
     74          6           0        1.406926    4.244787    0.903400
     75          1           0        1.314934    3.429436    1.627380
     76          1           0       -1.860199    1.477801    5.006210
     77          1           0       -3.196916    1.089956    0.968617
     78          1           0       -4.231792   -2.746339   -0.709896
     79          1           0        1.601565   -4.377807    3.567150
     80          6           0       -5.204401   -0.281198   -0.316937
     81          6           0       -2.024387   -4.084596   -0.095671
     82          9           0       -5.404717    0.992483    0.024586
     83          9           0       -5.342486   -0.364478   -1.650946
     84          9           0       -6.207597   -0.997733    0.207373
     85          9           0       -2.230326   -4.921980    0.934189
     86          9           0       -2.807425   -4.511536   -1.094421
     87          9           0       -0.761597   -4.258055   -0.492302
 ---------------------------------------------------------------------

 SCF Done:  E(RwB97XD) =  -3595.64596438     A.U. after   24 cycles

 The electronic state is 1-A.
 Alpha  occ. eigenvalues --  -89.22535 -77.23880 -77.23278 -24.84543 -24.84514
 Alpha  occ. eigenvalues --  -24.84353 -24.84342 -24.84161 -24.84048 -19.24665
 Alpha  occ. eigenvalues --  -19.24635 -14.48375 -10.54049 -10.53763 -10.34410
 Alpha  occ. eigenvalues --  -10.33488 -10.32200 -10.31896 -10.31611 -10.31050
 Alpha  occ. eigenvalues --  -10.30984 -10.30801 -10.30254 -10.30179 -10.30126
 Alpha  occ. eigenvalues --  -10.30125 -10.29721 -10.29714 -10.29687 -10.29682
 Alpha  occ. eigenvalues --  -10.29665 -10.29441 -10.29430 -10.29394 -10.29379
 Alpha  occ. eigenvalues --  -10.29324 -10.29311 -10.29246 -10.29245 -10.29241
 Alpha  occ. eigenvalues --  -10.29170 -10.29170 -10.29133 -10.29064 -10.29055
 Alpha  occ. eigenvalues --  -10.28932 -10.28873 -10.28814 -10.28721 -10.28625
 Alpha  occ. eigenvalues --  -10.28409 -10.27444 -10.26903  -8.22695  -6.68338
 Alpha  occ. eigenvalues --   -6.67810  -6.17593  -6.17416  -6.17378  -4.83027
 Alpha  occ. eigenvalues --   -4.83012  -4.82701  -4.82509  -4.82480  -4.82139
 Alpha  occ. eigenvalues --   -3.55677  -2.24383  -2.23540  -2.21535  -1.42880
 Alpha  occ. eigenvalues --   -1.42643  -1.33675  -1.33637  -1.33477  -1.33126
 Alpha  occ. eigenvalues --   -1.21560  -1.10538  -1.05222  -0.97702  -0.96671
 Alpha  occ. eigenvalues --   -0.96503  -0.96003  -0.95842  -0.95101  -0.90946
 Alpha  occ. eigenvalues --   -0.90080  -0.88586  -0.87224  -0.85618  -0.85382
 Alpha  occ. eigenvalues --   -0.85012  -0.84906  -0.84843  -0.84690  -0.84602
 Alpha  occ. eigenvalues --   -0.84568  -0.84383  -0.83493  -0.81093  -0.79427
 Alpha  occ. eigenvalues --   -0.77066  -0.75512  -0.74002  -0.73896  -0.71690
 Alpha  occ. eigenvalues --   -0.71084  -0.70251  -0.70103  -0.70011  -0.69936
 Alpha  occ. eigenvalues --   -0.69472  -0.69412  -0.69277  -0.69239  -0.69061
 Alpha  occ. eigenvalues --   -0.69018  -0.68264  -0.67922  -0.65899  -0.65207
 Alpha  occ. eigenvalues --   -0.64216  -0.62947  -0.61220  -0.60932  -0.60828
 Alpha  occ. eigenvalues --   -0.60563  -0.59956  -0.58858  -0.58538  -0.58033
 Alpha  occ. eigenvalues --   -0.57245  -0.57026  -0.56767  -0.56694  -0.56138
 Alpha  occ. eigenvalues --   -0.55651  -0.55165  -0.54976  -0.54587  -0.54381
 Alpha  occ. eigenvalues --   -0.54252  -0.53909  -0.53796  -0.53603  -0.53491
 Alpha  occ. eigenvalues --   -0.53364  -0.53073  -0.52858  -0.52754  -0.52594
 Alpha  occ. eigenvalues --   -0.52387  -0.52110  -0.51594  -0.51051  -0.50920
 Alpha  occ. eigenvalues --   -0.50910  -0.50789  -0.50633  -0.50574  -0.50386
 Alpha  occ. eigenvalues --   -0.50191  -0.50008  -0.49872  -0.49640  -0.49213
 Alpha  occ. eigenvalues --   -0.48787  -0.47835  -0.47334  -0.47037  -0.46918
 Alpha  occ. eigenvalues --   -0.46664  -0.46261  -0.45864  -0.45612  -0.45463
 Alpha  occ. eigenvalues --   -0.45080  -0.44558  -0.43612  -0.43318  -0.42826
 Alpha  occ. eigenvalues --   -0.42722  -0.42664  -0.42526  -0.41857  -0.41766
 Alpha  occ. eigenvalues --   -0.41725  -0.40908  -0.40693  -0.40407  -0.40132
 Alpha  occ. eigenvalues --   -0.39739  -0.39592  -0.39051  -0.37180  -0.35850
 Alpha  occ. eigenvalues --   -0.34761  -0.34650  -0.34342  -0.33939  -0.33776
 Alpha  occ. eigenvalues --   -0.33724  -0.33574  -0.33434  -0.33309  -0.33161
 Alpha  occ. eigenvalues --   -0.32403  -0.31190  -0.30795  -0.29034  -0.22345
 Alpha virt. eigenvalues --    0.00641   0.02663   0.02961   0.03215   0.03357
 Alpha virt. eigenvalues --    0.03805   0.04728   0.04880   0.05369   0.05608
 Alpha virt. eigenvalues --    0.06426   0.07444   0.08571   0.08716   0.10959

 Mulliken charges:
               1
     1  C    0.303104
     2  C   -0.255829
     3  H    0.200019
     4  C   -0.164162
     5  H    0.147653
     6  C   -0.235600
     7  C   -0.254388
     8  H    0.148375
     9  C   -0.102385
    10  C   -0.001249
    11  C   -0.002549
    12  C   -0.316038
    13  C    0.154372
    14  C   -0.459599
    15  C    0.223021
    16  N   -0.252145
    17  S    0.844688
    18  O   -0.525150
    19  O   -0.514368
    20  C   -0.373772
    21  H    0.191980
    22  H    0.187972
    23  Pd  -0.289186
    24  P    0.318560
    25  P    0.310955
    26  C   -0.308143
    27  H    0.174101
    28  H    0.172622
    29  C   -0.356084
    30  H    0.189782
    31  H    0.168196
    32  C    0.040097
    33  C   -0.181625
    34  H    0.175101
    35  C   -0.175994
    36  H    0.158787
    37  C   -0.127739
    38  H    0.160507
    39  C   -0.194945
    40  H    0.156725
    41  C   -0.255357
    42  H    0.220424
    43  C   -0.153472
    44  C   -0.042787
    45  H    0.303390
    46  C   -0.276296
    47  H    0.157367
    48  C   -0.080388
    49  H    0.160038
    50  C   -0.207563
    51  H    0.157963
    52  C   -0.160460
    53  H    0.176546
    54  C    0.075897
    55  C   -0.186709
    56  H    0.198507
    57  C   -0.259540
    58  H    0.151944
    59  C   -0.091855
    60  H    0.157211
    61  C   -0.225403
    62  H    0.154954
    63  C   -0.128607
    64  H    0.182231
    65  C   -0.079190
    66  C   -0.235532
    67  H    0.175294
    68  C   -0.160263
    69  H    0.159995
    70  C   -0.115193
    71  H    0.161627
    72  C   -0.217711
    73  H    0.154302
    74  C   -0.120702
    75  H    0.226854
    76  H    0.191186
    77  H    0.210741
    78  H    0.169438
    79  H    0.146398
    80  C    0.548314
    81  C    0.560477
    82  F   -0.188089
    83  F   -0.196386
    84  F   -0.191796
    85  F   -0.190050
    86  F   -0.192208
    87  F   -0.181210
 Sum of Mulliken charges =   0.00000

 Dipole moment (field-independent basis, Debye):
    X=              6.2733    Y=              2.6464    Z=             -3.9992  Tot=              7.8963
 Quadrupole moment (field-independent basis, Debye-Ang):
   XX=           -329.1275   YY=           -336.3831   ZZ=           -319.0082
   XY=              1.7163   XZ=            -12.6378   YZ=             -3.9651

 Normal termination of Gaussian 09 at Wed Nov 15 19:46:17 2023.
