 Gaussian 09, Revision D.01,
 Gaussian 09:  ES64L-G09RevD.01 24-Apr-2013

 ----------------------------------------------------------------------
 #p sp geom=allcheck scrf(solvent=dichloromethane,smd) wb97xd genecp te
 mperature=313 integral(grid=ultrafine)
 ----------------------------------------------------------------------

 Structure from the checkpoint file:  "ts-dcype-v1-released-sp.chk"
 -----
 title
 -----
 Charge =  0 Multiplicity = 1

                         Standard orientation:
 ---------------------------------------------------------------------
 Center     Atomic      Atomic             Coordinates (Angstroms)
 Number     Number       Type             X           Y           Z
 ---------------------------------------------------------------------
      1          6           0       -1.127308    0.660271   -1.209114
      2          6           0       -0.808759    1.633459   -2.200117
      3          1           0        0.186390    1.651485   -2.648963
      4          6           0       -1.728336    2.623328   -2.494533
      5          1           0       -1.467730    3.432574   -3.181001
      6          6           0       -3.016099    2.643923   -1.915637
      7          6           0       -3.409455    1.590787   -1.097427
      8          1           0       -4.429890    1.504222   -0.726749
      9          6           0       -2.489812    0.577263   -0.783772
     10          6           0       -2.761358   -0.714543   -0.216608
     11          6           0       -3.849005   -1.146553    0.542208
     12          6           0       -3.935131   -2.462793    0.970979
     13          6           0       -2.925171   -3.367570    0.629825
     14          6           0       -1.834438   -2.968772   -0.138232
     15          6           0       -1.746398   -1.646135   -0.574758
     16          7           0       -0.698371   -1.042152   -1.296383
     17         16           0       -0.074866   -1.627737   -2.739322
     18          8           0        1.055901   -0.759746   -3.050951
     19          8           0        0.075655   -3.069632   -2.719512
     20          6           0       -1.340680   -1.194864   -3.950058
     21         17           0       -2.853778   -2.050081   -3.689689
     22          1           0       -0.911086   -1.465350   -4.924571
     23          1           0       -1.497356   -0.109314   -3.872961
     24          9           0       -0.891148   -3.868461   -0.367371
     25          9           0       -2.978767   -4.608923    1.093119
     26          9           0       -4.949671   -2.866828    1.720231
     27          9           0       -4.812783   -0.293428    0.892570
     28          8           0       -3.805292    3.695591   -2.257309
     29          6           0       -5.085223    3.754637   -1.705435
     30          1           0       -5.056503    3.768387   -0.599474
     31          1           0       -5.716004    2.904298   -2.023789
     32          1           0       -5.545038    4.686145   -2.060706
     33         46           0        0.521100    0.157963   -0.074239
     34         15           0        0.841742    1.937019    1.321599
     35          6           0        2.199164    1.485145    2.507692
     36          6           0       -0.566947    2.416148    2.424848
     37          6           0        1.364660    3.491894    0.473949
     38          6           0        3.245376    0.540359    1.909136
     39          1           0        2.674499    2.391350    2.916288
     40          1           0        1.688107    0.997454    3.352459
     41          6           0       -1.599311    3.239685    1.649426
     42          6           0       -1.203911    1.139638    2.987638
     43          1           0       -0.170563    3.022240    3.261923
     44          6           0        1.700563    4.673868    1.381246
     45          6           0        2.498621    3.218002   -0.515965
     46          1           0        0.470453    3.745469   -0.126356
     47         15           0        2.519335   -0.773520    0.805261
     48          1           0        3.854627    0.082198    2.704958
     49          1           0        3.940406    1.108947    1.271098
     50          6           0       -2.852399    3.512735    2.475257
     51          1           0       -1.880065    2.690742    0.735265
     52          1           0       -1.163408    4.195053    1.319681
     53          6           0       -2.445290    1.435139    3.820863
     54          1           0       -1.475643    0.487640    2.137567
     55          1           0       -0.472550    0.572823    3.585655
     56          6           0        2.029154    5.918362    0.559094
     57          1           0        2.572521    4.415746    2.008961
     58          1           0        0.870043    4.885527    2.073411
     59          6           0        2.819446    4.460349   -1.338830
     60          1           0        3.403290    2.910188    0.038717
     61          1           0        2.229362    2.371192   -1.166851
     62          6           0        2.302613   -2.253653    1.899900
     63          6           0        3.894309   -1.215657   -0.347699
     64          6           0       -3.467867    2.230057    3.019411
     65          1           0       -3.583110    4.060149    1.857274
     66          1           0       -2.596371    4.180351    3.318517
     67          1           0       -2.884417    0.489611    4.177980
     68          1           0       -2.157066    2.006466    4.722282
     69          6           0        3.145588    5.651972   -0.445032
     70          1           0        2.301639    6.751454    1.227148
     71          1           0        1.120893    6.238395    0.017531
     72          1           0        3.654851    4.252465   -2.026724
     73          1           0        1.947200    4.703296   -1.971995
     74          6           0        1.121603   -2.003979    2.845264
     75          6           0        2.062421   -3.497463    1.039729
     76          1           0        3.220341   -2.395380    2.501156
     77          6           0        4.095915   -0.111868   -1.388729
     78          6           0        5.211678   -1.618206    0.313080
     79          1           0        3.486685   -2.088473   -0.890040
     80          1           0       -4.348973    2.460153    3.639955
     81          1           0       -3.828216    1.609536    2.181662
     82          1           0        3.334996    6.550473   -1.054083
     83          1           0        4.083198    5.446058    0.103138
     84          6           0        0.766878   -3.233269    3.673858
     85          1           0        0.246870   -1.702989    2.239511
     86          1           0        1.341889   -1.153884    3.510797
     87          6           0        1.684719   -4.718021    1.873595
     88          1           0        1.255877   -3.284171    0.318333
     89          1           0        2.958507   -3.726574    0.442282
     90          6           0        5.140230   -0.518205   -2.422765
     91          1           0        4.427632    0.816103   -0.888457
     92          1           0        3.133445    0.107967   -1.876727
     93          6           0        6.252670   -2.015968   -0.730850
     94          1           0        5.598248   -0.767985    0.903799
     95          1           0        5.052788   -2.445685    1.023622
     96          6           0        0.497582   -4.441929    2.787346
     97          1           0       -0.107643   -3.012441    4.307232
     98          1           0        1.600481   -3.463599    4.362263
     99          1           0        1.465552   -5.563959    1.203175
    100          1           0        2.552191   -5.020968    2.488337
    101          6           0        6.457808   -0.915814   -1.766474
    102          1           0        5.297785    0.303348   -3.140097
    103          1           0        4.747913   -1.368764   -3.007908
    104          1           0        7.206019   -2.266865   -0.237785
    105          1           0        5.914414   -2.935985   -1.240614
    106          1           0        0.273759   -5.327729    3.403124
    107          1           0       -0.399498   -4.260164    2.171805
    108          1           0        7.186316   -1.238419   -2.527807
    109          1           0        6.898443   -0.030869   -1.271245
 ---------------------------------------------------------------------

 SCF Done:  E(RwB97XD) =  -3907.14748222     A.U. after   25 cycles

 The electronic state is 1-A.
 Alpha  occ. eigenvalues -- -101.70544 -89.23286 -77.21738 -77.20963 -24.84344
 Alpha  occ. eigenvalues --  -24.84206 -24.83814 -24.83648 -19.26960 -19.25608
 Alpha  occ. eigenvalues --  -19.25595 -14.49694 -10.39021 -10.39011 -10.38827
 Alpha  occ. eigenvalues --  -10.38575 -10.37250 -10.34929 -10.33504 -10.32881
 Alpha  occ. eigenvalues --  -10.32133 -10.31306 -10.28664 -10.28592 -10.28573
 Alpha  occ. eigenvalues --  -10.28486 -10.28441 -10.28392 -10.28345 -10.28224
 Alpha  occ. eigenvalues --  -10.28218 -10.27997 -10.27465 -10.27319 -10.27308
 Alpha  occ. eigenvalues --  -10.27271 -10.27200 -10.27029 -10.26952 -10.26942
 Alpha  occ. eigenvalues --  -10.26929 -10.26921 -10.26895 -10.26879 -10.26835
 Alpha  occ. eigenvalues --  -10.26816 -10.26788 -10.26753 -10.26696 -10.26681
 Alpha  occ. eigenvalues --  -10.26514 -10.26499  -9.59098  -8.23463  -7.33781
 Alpha  occ. eigenvalues --   -7.32863  -7.32828  -6.66261  -6.65545  -6.18344
 Alpha  occ. eigenvalues --   -6.18179  -6.18164  -4.80943  -4.80909  -4.80636
 Alpha  occ. eigenvalues --   -4.80233  -4.80199  -4.79879  -3.54290  -2.22968
 Alpha  occ. eigenvalues --   -2.22098  -2.20272  -1.36855  -1.35949  -1.34949
 Alpha  occ. eigenvalues --   -1.34502  -1.22487  -1.16432  -1.11609  -1.05932
 Alpha  occ. eigenvalues --   -0.98190  -0.97238  -0.94942  -0.93707  -0.93399
 Alpha  occ. eigenvalues --   -0.92688  -0.92543  -0.89191  -0.88272  -0.86679
 Alpha  occ. eigenvalues --   -0.85651  -0.84377  -0.84066  -0.83635  -0.83522
 Alpha  occ. eigenvalues --   -0.83400  -0.83355  -0.83311  -0.82990  -0.82915
 Alpha  occ. eigenvalues --   -0.82227  -0.78838  -0.76193  -0.75622  -0.74891
 Alpha  occ. eigenvalues --   -0.72636  -0.71286  -0.70254  -0.70209  -0.70019
 Alpha  occ. eigenvalues --   -0.69778  -0.69685  -0.68955  -0.68853  -0.68781
 Alpha  occ. eigenvalues --   -0.68539  -0.66159  -0.65941  -0.65818  -0.64706
 Alpha  occ. eigenvalues --   -0.64105  -0.64019  -0.63624  -0.63206  -0.63022
 Alpha  occ. eigenvalues --   -0.62772  -0.61392  -0.61001  -0.60802  -0.59859
 Alpha  occ. eigenvalues --   -0.59396  -0.58797  -0.58401  -0.56851  -0.56633
 Alpha  occ. eigenvalues --   -0.56442  -0.56217  -0.55771  -0.55709  -0.55591
 Alpha  occ. eigenvalues --   -0.55523  -0.55101  -0.54878  -0.53976  -0.53548
 Alpha  occ. eigenvalues --   -0.53043  -0.52861  -0.52575  -0.52429  -0.52207
 Alpha  occ. eigenvalues --   -0.52092  -0.51817  -0.51753  -0.51700  -0.51589
 Alpha  occ. eigenvalues --   -0.51564  -0.51346  -0.51289  -0.50844  -0.50587
 Alpha  occ. eigenvalues --   -0.49773  -0.49618  -0.49216  -0.48693  -0.48562
 Alpha  occ. eigenvalues --   -0.48053  -0.47071  -0.47015  -0.46760  -0.46418
 Alpha  occ. eigenvalues --   -0.46225  -0.45939  -0.45735  -0.45590  -0.45348
 Alpha  occ. eigenvalues --   -0.45080  -0.44492  -0.44417  -0.44093  -0.43609
 Alpha  occ. eigenvalues --   -0.43429  -0.43221  -0.43176  -0.42763  -0.42729
 Alpha  occ. eigenvalues --   -0.42481  -0.42190  -0.41758  -0.41669  -0.41589
 Alpha  occ. eigenvalues --   -0.41426  -0.41248  -0.41095  -0.40748  -0.40573
 Alpha  occ. eigenvalues --   -0.40319  -0.40201  -0.39827  -0.39279  -0.38951
 Alpha  occ. eigenvalues --   -0.38868  -0.38665  -0.38374  -0.38274  -0.37873
 Alpha  occ. eigenvalues --   -0.37586  -0.37469  -0.37152  -0.36780  -0.36380
 Alpha  occ. eigenvalues --   -0.35823  -0.35418  -0.35296  -0.34913  -0.33083
 Alpha  occ. eigenvalues --   -0.32703  -0.32365  -0.31642  -0.30666  -0.30363
 Alpha  occ. eigenvalues --   -0.28553  -0.20258
 Alpha virt. eigenvalues --    0.02217   0.04547   0.05393   0.07385   0.07818
 Alpha virt. eigenvalues --    0.08146   0.09313   0.09957   0.10067   0.10314
 Alpha virt. eigenvalues --    0.10772   0.11089   0.12018   0.12145   0.12439

 Mulliken charges:
               1
     1  C    0.320055
     2  C   -0.356600
     3  H    0.239826
     4  C   -0.204650
     5  H    0.140122
     6  C    0.385097
     7  C   -0.465262
     8  H    0.173626
     9  C   -0.056177
    10  C   -0.012826
    11  C    0.250580
    12  C    0.201182
    13  C    0.199713
    14  C    0.143261
    15  C   -0.071723
    16  N   -0.240154
    17  S    0.840953
    18  O   -0.495856
    19  O   -0.481008
    20  C   -0.165094
    21  Cl  -0.101552
    22  H    0.215954
    23  H    0.205282
    24  F   -0.195399
    25  F   -0.204360
    26  F   -0.202336
    27  F   -0.221335
    28  O   -0.314619
    29  C   -0.221617
    30  H    0.125671
    31  H    0.132015
    32  H    0.153950
    33  Pd  -0.431086
    34  P    0.343143
    35  C   -0.387256
    36  C   -0.081812
    37  C   -0.049602
    38  C   -0.385560
    39  H    0.162597
    40  H    0.170801
    41  C   -0.240830
    42  C   -0.280014
    43  H    0.122994
    44  C   -0.290401
    45  C   -0.335828
    46  H    0.130167
    47  P    0.406274
    48  H    0.156543
    49  H    0.164818
    50  C   -0.185799
    51  H    0.055692
    52  H    0.130584
    53  C   -0.176438
    54  H    0.108122
    55  H    0.121818
    56  C   -0.191034
    57  H    0.111320
    58  H    0.134292
    59  C   -0.180032
    60  H    0.104541
    61  H    0.165664
    62  C   -0.049531
    63  C   -0.130740
    64  C   -0.206864
    65  H    0.119132
    66  H    0.099540
    67  H    0.114660
    68  H    0.098791
    69  C   -0.193256
    70  H    0.116661
    71  H    0.101726
    72  H    0.116800
    73  H    0.104173
    74  C   -0.304209
    75  C   -0.352219
    76  H    0.114866
    77  C   -0.310988
    78  C   -0.278858
    79  H    0.136021
    80  H    0.112765
    81  H    0.091158
    82  H    0.116849
    83  H    0.093444
    84  C   -0.180961
    85  H    0.131686
    86  H    0.123498
    87  C   -0.174054
    88  H    0.135685
    89  H    0.130392
    90  C   -0.185154
    91  H    0.104250
    92  H    0.165036
    93  C   -0.188071
    94  H    0.118409
    95  H    0.132026
    96  C   -0.192783
    97  H    0.115401
    98  H    0.098165
    99  H    0.118096
   100  H    0.096989
   101  C   -0.193615
   102  H    0.114098
   103  H    0.105475
   104  H    0.115190
   105  H    0.100820
   106  H    0.113128
   107  H    0.088236
   108  H    0.115967
   109  H    0.091773
 Sum of Mulliken charges =   0.00000

 Dipole moment (field-independent basis, Debye):
    X=              6.3092    Y=              7.0944    Z=              4.7586  Tot=             10.6198
 Quadrupole moment (field-independent basis, Debye-Ang):
   XX=           -349.5471   YY=           -369.8313   ZZ=           -350.8394
   XY=             -9.4395   XZ=             13.1269   YZ=              0.5243

 Normal termination of Gaussian 09 at Sun Mar  3 17:26:17 2024.
