 Gaussian 09, Revision D.01,
 Gaussian 09:  ES64L-G09RevD.01 24-Apr-2013

 ----------------------------------------------------------------------
 #p sp geom=allcheck scrf(solvent=dichloromethane,smd) wb97xd genecp te
 mperature=313 integral(grid=ultrafine)
 ----------------------------------------------------------------------

 Structure from the checkpoint file:  "ts_dppe-v2-released-sp.chk"
 -----
 title
 -----
 Charge =  0 Multiplicity = 1

                         Standard orientation:
 ---------------------------------------------------------------------
 Center     Atomic      Atomic             Coordinates (Angstroms)
 Number     Number       Type             X           Y           Z
 ---------------------------------------------------------------------
      1          6           0       -1.250979    0.686847    1.210887
      2          6           0       -1.826539    0.263819    2.436543
      3          1           0       -1.236040   -0.314227    3.149884
      4          6           0       -3.171383    0.497456    2.660377
      5          1           0       -3.658765    0.101495    3.554142
      6          6           0       -3.969017    1.200263    1.732768
      7          6           0       -3.372781    1.774689    0.613583
      8          1           0       -3.930216    2.416730   -0.067236
      9          6           0       -2.002061    1.571916    0.383274
     10          6           0       -1.135491    2.294466   -0.513911
     11          6           0       -1.442176    2.976075   -1.691520
     12          6           0       -0.435867    3.553611   -2.452890
     13          6           0        0.895154    3.474664   -2.030844
     14          6           0        1.234333    2.800755   -0.859715
     15          6           0        0.222290    2.222559   -0.087414
     16          7           0        0.390941    1.387721    1.028371
     17         16           0        1.245642    1.787539    2.412538
     18          8           0        1.239890    0.572883    3.217367
     19          8           0        2.482552    2.479822    2.110376
     20          6           0        0.106559    2.977936    3.153186
     21         17           0        0.725899    3.577786    4.685402
     22          1           0       -0.853930    2.464451    3.299050
     23          1           0        0.005175    3.804252    2.436439
     24          9           0        2.511674    2.668065   -0.567765
     25          9           0        1.848587    3.980065   -2.799836
     26          9           0       -0.721374    4.141584   -3.606368
     27          9           0       -2.693710    3.021020   -2.145049
     28          8           0       -5.291558    1.283553    2.033113
     29          6           0       -6.114132    2.008502    1.168471
     30          1           0       -6.102969    1.593234    0.143718
     31          1           0       -5.822379    3.073346    1.114842
     32          1           0       -7.134659    1.942177    1.567473
     33         46           0        0.160401   -0.612587    0.455043
     34         15           0        2.112439   -1.653619   -0.405094
     35         15           0       -1.002692   -2.288208   -0.570116
     36          6           0        0.206335   -3.638349   -0.941202
     37          1           0        0.408655   -4.149627    0.015177
     38          1           0       -0.217480   -4.378611   -1.638598
     39          6           0        1.490287   -3.026455   -1.500805
     40          1           0        1.295987   -2.575200   -2.486938
     41          1           0        2.265715   -3.793317   -1.646547
     42          6           0       -2.459829   -3.064258    0.183023
     43          6           0       -2.562785   -4.421956    0.504517
     44          1           0       -1.756504   -5.115403    0.255041
     45          6           0       -3.702754   -4.900533    1.151017
     46          1           0       -3.778069   -5.962131    1.398589
     47          6           0       -4.740098   -4.030739    1.482958
     48          1           0       -5.627232   -4.409729    1.995873
     49          6           0       -4.640082   -2.674584    1.166908
     50          1           0       -5.437572   -1.978239    1.437621
     51          6           0       -3.506296   -2.193581    0.522378
     52          1           0       -3.423261   -1.128093    0.290395
     53          6           0       -1.604613   -1.762143   -2.217422
     54          6           0       -1.364219   -0.448691   -2.634657
     55          1           0       -0.820904    0.225988   -1.968200
     56          6           0       -1.827469   -0.000735   -3.871154
     57          1           0       -1.651450    1.034926   -4.172439
     58          6           0       -2.532233   -0.869819   -4.701061
     59          1           0       -2.901152   -0.522821   -5.669223
     60          6           0       -2.778836   -2.182247   -4.291279
     61          1           0       -3.339547   -2.860331   -4.939167
     62          6           0       -2.324242   -2.626391   -3.052506
     63          1           0       -2.544549   -3.646477   -2.724851
     64          6           0        3.046320   -0.557134   -1.520211
     65          6           0        2.377129    0.000051   -2.621758
     66          1           0        1.358231   -0.313992   -2.863781
     67          6           0        2.989872    0.978787   -3.397009
     68          1           0        2.454378    1.412881   -4.244496
     69          6           0        4.274056    1.421321   -3.079230
     70          1           0        4.746163    2.204308   -3.676560
     71          6           0        4.943103    0.872163   -1.988299
     72          1           0        5.945934    1.219710   -1.729400
     73          6           0        4.335329   -0.110969   -1.209241
     74          1           0        4.860181   -0.521092   -0.343548
     75          6           0        3.352469   -2.406552    0.694815
     76          6           0        4.318126   -3.318741    0.247789
     77          1           0        4.353409   -3.611332   -0.805191
     78          6           0        5.250097   -3.843314    1.138560
     79          1           0        6.001030   -4.554182    0.785333
     80          6           0        5.229421   -3.454877    2.479687
     81          1           0        5.963407   -3.866398    3.176886
     82          6           0        4.278208   -2.540898    2.927608
     83          1           0        4.262925   -2.228981    3.974304
     84          6           0        3.337524   -2.017365    2.040492
     85          1           0        2.593680   -1.293903    2.390572
 ---------------------------------------------------------------------

 SCF Done:  E(RwB97XD) =  -3892.55480667     A.U. after   25 cycles

 The electronic state is 1-A.
 Alpha  occ. eigenvalues -- -101.70558 -89.23330 -77.23755 -77.23146 -24.84664
 Alpha  occ. eigenvalues --  -24.84466 -24.84120 -24.83753 -19.27252 -19.25577
 Alpha  occ. eigenvalues --  -19.25554 -14.49599 -10.39402 -10.39382 -10.39227
 Alpha  occ. eigenvalues --  -10.38977 -10.37280 -10.35294 -10.33801 -10.33361
 Alpha  occ. eigenvalues --  -10.32274 -10.31850 -10.30215 -10.30203 -10.30140
 Alpha  occ. eigenvalues --  -10.30118 -10.29785 -10.29730 -10.29686 -10.29661
 Alpha  occ. eigenvalues --  -10.29649 -10.29550 -10.29540 -10.29425 -10.29385
 Alpha  occ. eigenvalues --  -10.29361 -10.29311 -10.29294 -10.29293 -10.29257
 Alpha  occ. eigenvalues --  -10.29210 -10.29186 -10.29142 -10.29133 -10.29071
 Alpha  occ. eigenvalues --  -10.29033 -10.28971 -10.28870 -10.28813 -10.28722
 Alpha  occ. eigenvalues --  -10.28568 -10.28283  -9.59106  -8.23491  -7.33793
 Alpha  occ. eigenvalues --   -7.32870  -7.32833  -6.68217  -6.67667  -6.18382
 Alpha  occ. eigenvalues --   -6.18204  -6.18189  -4.82909  -4.82890  -4.82575
 Alpha  occ. eigenvalues --   -4.82370  -4.82336  -4.81991  -3.55142  -2.23812
 Alpha  occ. eigenvalues --   -2.22958  -2.21168  -1.37141  -1.36233  -1.35272
 Alpha  occ. eigenvalues --   -1.34800  -1.22524  -1.16668  -1.11639  -1.06032
 Alpha  occ. eigenvalues --   -0.98179  -0.97537  -0.96709  -0.96495  -0.96027
 Alpha  occ. eigenvalues --   -0.95831  -0.95391  -0.89994  -0.89562  -0.87208
 Alpha  occ. eigenvalues --   -0.87001  -0.85398  -0.85106  -0.84914  -0.84832
 Alpha  occ. eigenvalues --   -0.84714  -0.84688  -0.84615  -0.84374  -0.83888
 Alpha  occ. eigenvalues --   -0.82276  -0.79026  -0.77058  -0.76144  -0.75195
 Alpha  occ. eigenvalues --   -0.73864  -0.71290  -0.71079  -0.70402  -0.70331
 Alpha  occ. eigenvalues --   -0.70114  -0.69987  -0.69426  -0.69192  -0.69077
 Alpha  occ. eigenvalues --   -0.69031  -0.66471  -0.66274  -0.66155  -0.65741
 Alpha  occ. eigenvalues --   -0.64225  -0.63660  -0.63278  -0.61802  -0.61323
 Alpha  occ. eigenvalues --   -0.61109  -0.60939  -0.60243  -0.59710  -0.59332
 Alpha  occ. eigenvalues --   -0.59141  -0.58828  -0.58484  -0.57191  -0.56984
 Alpha  occ. eigenvalues --   -0.56066  -0.55915  -0.55254  -0.55038  -0.54994
 Alpha  occ. eigenvalues --   -0.54624  -0.54374  -0.54277  -0.54234  -0.53918
 Alpha  occ. eigenvalues --   -0.53793  -0.53642  -0.53580  -0.53324  -0.53136
 Alpha  occ. eigenvalues --   -0.52714  -0.52443  -0.51742  -0.51236  -0.51120
 Alpha  occ. eigenvalues --   -0.50902  -0.50690  -0.50471  -0.50040  -0.49846
 Alpha  occ. eigenvalues --   -0.49518  -0.48968  -0.48775  -0.48336  -0.47627
 Alpha  occ. eigenvalues --   -0.47289  -0.47236  -0.46888  -0.46334  -0.46173
 Alpha  occ. eigenvalues --   -0.45583  -0.45537  -0.45139  -0.44927  -0.44022
 Alpha  occ. eigenvalues --   -0.43426  -0.43158  -0.42963  -0.42758  -0.42630
 Alpha  occ. eigenvalues --   -0.42308  -0.42199  -0.41980  -0.41392  -0.40957
 Alpha  occ. eigenvalues --   -0.40903  -0.40645  -0.40384  -0.40104  -0.39597
 Alpha  occ. eigenvalues --   -0.39507  -0.38886  -0.38633  -0.36141  -0.34933
 Alpha  occ. eigenvalues --   -0.34851  -0.34315  -0.33964  -0.33753  -0.33741
 Alpha  occ. eigenvalues --   -0.33682  -0.33440  -0.33157  -0.33079  -0.33027
 Alpha  occ. eigenvalues --   -0.31737  -0.30918  -0.30437  -0.29140  -0.21144
 Alpha virt. eigenvalues --    0.01713   0.02466   0.03048   0.03241   0.03481
 Alpha virt. eigenvalues --    0.03962   0.04701   0.04825   0.05461   0.05644
 Alpha virt. eigenvalues --    0.06251   0.07403   0.08245   0.08716   0.09154

 Mulliken charges:
               1
     1  C    0.227950
     2  C   -0.225983
     3  H    0.208784
     4  C   -0.241995
     5  H    0.142105
     6  C    0.361431
     7  C   -0.456917
     8  H    0.169603
     9  C   -0.003471
    10  C   -0.140109
    11  C    0.232855
    12  C    0.217479
    13  C    0.168585
    14  C    0.158162
    15  C    0.056691
    16  N   -0.271535
    17  S    0.828565
    18  O   -0.502889
    19  O   -0.479556
    20  C   -0.169901
    21  Cl  -0.109575
    22  H    0.205509
    23  H    0.210332
    24  F   -0.185204
    25  F   -0.199296
    26  F   -0.205102
    27  F   -0.215594
    28  O   -0.314133
    29  C   -0.225445
    30  H    0.133469
    31  H    0.131972
    32  H    0.156029
    33  Pd  -0.232230
    34  P    0.311213
    35  P    0.289141
    36  C   -0.307011
    37  H    0.171924
    38  H    0.171880
    39  C   -0.359781
    40  H    0.187051
    41  H    0.167551
    42  C    0.042701
    43  C   -0.175801
    44  H    0.174089
    45  C   -0.174511
    46  H    0.158109
    47  C   -0.129806
    48  H    0.159509
    49  C   -0.196385
    50  H    0.161386
    51  C   -0.269027
    52  H    0.220594
    53  C   -0.190250
    54  C    0.032704
    55  H    0.219756
    56  C   -0.282184
    57  H    0.168982
    58  C   -0.080841
    59  H    0.161139
    60  C   -0.210151
    61  H    0.158704
    62  C   -0.141950
    63  H    0.174373
    64  C    0.047454
    65  C   -0.182359
    66  H    0.191304
    67  C   -0.245831
    68  H    0.150888
    69  C   -0.107416
    70  H    0.157234
    71  C   -0.212988
    72  H    0.155276
    73  C   -0.127344
    74  H    0.183513
    75  C   -0.079816
    76  C   -0.227908
    77  H    0.171316
    78  C   -0.161634
    79  H    0.160014
    80  C   -0.113396
    81  H    0.161820
    82  C   -0.225574
    83  H    0.155060
    84  C   -0.110701
    85  H    0.217391
 Sum of Mulliken charges =   0.00000

 Dipole moment (field-independent basis, Debye):
    X=             -3.1213    Y=             -8.0084    Z=             -4.8803  Tot=              9.8841
 Quadrupole moment (field-independent basis, Debye-Ang):
   XX=           -322.4684   YY=           -318.5744   ZZ=           -349.0565
   XY=            -17.7446   XZ=             -2.9440   YZ=              0.7940

 Normal termination of Gaussian 09 at Wed Nov 29 17:27:13 2023.
