 Gaussian 09, Revision D.01,
 Gaussian 09:  ES64L-G09RevD.01 24-Apr-2013

 ----------------------------------------------------------------------
 #p sp geom=allcheck scrf(solvent=dichloromethane,smd) wb97xd genecp te
 mperature=313 integral(grid=ultrafine)
 ----------------------------------------------------------------------

 Structure from the checkpoint file:  "ts-dppBz-released-sp.chk"
 -----
 title
 -----
 Charge =  0 Multiplicity = 1

                         Standard orientation:
 ---------------------------------------------------------------------
 Center     Atomic      Atomic             Coordinates (Angstroms)
 Number     Number       Type             X           Y           Z
 ---------------------------------------------------------------------
      1          6           0        1.604403    0.519487    1.010050
      2          6           0        1.453786    1.217206    2.233938
      3          1           0        0.672071    0.926165    2.938359
      4          6           0        2.234038    2.337702    2.462223
      5          1           0        2.080830    2.948463    3.355208
      6          6           0        3.223971    2.750304    1.544840
      7          6           0        3.512351    1.949844    0.444906
      8          1           0        4.347986    2.170049   -0.217141
      9          6           0        2.743711    0.798924    0.207976
     10          6           0        3.058288   -0.306084   -0.662338
     11          6           0        3.923321   -0.350231   -1.755958
     12          6           0        4.130254   -1.534100   -2.449948
     13          6           0        3.451767   -2.693188   -2.061832
     14          6           0        2.565569   -2.675349   -0.986925
     15          6           0        2.384940   -1.495656   -0.258490
     16          7           0        1.496040   -1.289102    0.805559
     17         16           0        1.433208   -2.219290    2.199349
     18          8           0        0.344351   -1.646225    2.978232
     19          8           0        1.482823   -3.639111    1.911590
     20          6           0        3.001341   -1.750587    2.965518
     21         17           0        3.224679   -2.573875    4.502887
     22          1           0        2.980684   -0.661704    3.110430
     23          1           0        3.796452   -2.038192    2.264199
     24          9           0        1.875647   -3.776702   -0.740177
     25          9           0        3.613514   -3.804989   -2.762023
     26          9           0        4.941396   -1.570815   -3.495418
     27          9           0        4.551546    0.750022   -2.172021
     28          8           0        3.869019    3.903610    1.845374
     29          6           0        4.804853    4.386374    0.927591
     30          1           0        4.357350    4.529145   -0.073527
     31          1           0        5.675974    3.713104    0.828415
     32          1           0        5.153073    5.355907    1.306970
     33         46           0       -0.179553   -0.147845    0.267668
     34         15           0       -2.263382   -1.111818   -0.330139
     35         15           0       -1.069298    1.719388   -0.702912
     36          6           0       -2.195604    1.105563   -2.008819
     37          6           0       -2.720834   -0.197712   -1.859842
     38          6           0       -2.082803    2.756617    0.392351
     39          6           0       -3.463483    2.901732    0.228239
     40          1           0       -3.960497    2.449954   -0.632550
     41          6           0       -4.208284    3.608070    1.171264
     42          1           0       -5.288768    3.704528    1.042606
     43          6           0       -3.580267    4.183869    2.273267
     44          1           0       -4.166898    4.736847    3.010682
     45          6           0       -2.200587    4.048165    2.436879
     46          1           0       -1.703547    4.494778    3.301338
     47          6           0       -1.454136    3.329400    1.508930
     48          1           0       -0.377866    3.200116    1.652729
     49          6           0        0.098196    2.838619   -1.532056
     50          6           0        1.137795    2.235152   -2.254296
     51          1           0        1.178233    1.144398   -2.327087
     52          6           0        2.123655    3.014357   -2.850890
     53          1           0        2.938399    2.531797   -3.394509
     54          6           0        2.088318    4.402731   -2.716759
     55          1           0        2.869360    5.015574   -3.173471
     56          6           0        1.058468    5.008586   -1.996695
     57          1           0        1.028968    6.095857   -1.892369
     58          6           0        0.063832    4.231943   -1.405131
     59          1           0       -0.736758    4.708280   -0.834471
     60          6           0       -2.607732   -2.862426   -0.697255
     61          6           0       -1.509508   -3.651075   -1.062683
     62          1           0       -0.508999   -3.212953   -1.085450
     63          6           0       -1.682156   -5.001208   -1.357199
     64          1           0       -0.815518   -5.607528   -1.629723
     65          6           0       -2.950426   -5.574400   -1.277523
     66          1           0       -3.085458   -6.635800   -1.499129
     67          6           0       -4.044832   -4.798421   -0.893723
     68          1           0       -5.035887   -5.251552   -0.813342
     69          6           0       -3.876678   -3.446960   -0.600040
     70          1           0       -4.732270   -2.848289   -0.278210
     71          6           0       -3.548318   -0.577214    0.853717
     72          6           0       -4.849344   -0.231541    0.469275
     73          1           0       -5.143589   -0.294807   -0.581763
     74          6           0       -5.762289    0.222284    1.418443
     75          1           0       -6.775590    0.493606    1.112112
     76          6           0       -5.378224    0.344282    2.753528
     77          1           0       -6.091078    0.712847    3.495125
     78          6           0       -4.082849    0.003744    3.141023
     79          1           0       -3.777500    0.103772    4.184990
     80          6           0       -3.167973   -0.457052    2.196838
     81          1           0       -2.146691   -0.716876    2.494722
     82          6           0       -3.525655   -0.730207   -2.870600
     83          6           0       -3.819543    0.021963   -4.007477
     84          6           0       -3.310627    1.312771   -4.146776
     85          6           0       -2.498045    1.851627   -3.151020
     86          1           0       -2.077155    2.853924   -3.266098
     87          1           0       -4.444519   -0.407701   -4.794006
     88          1           0       -3.536445    1.898409   -5.040920
     89          1           0       -3.912304   -1.747850   -2.772614
 ---------------------------------------------------------------------

 SCF Done:  E(RwB97XD) =  -4044.97622882     A.U. after   24 cycles

 The electronic state is 1-A.
 Alpha  occ. eigenvalues -- -101.70537 -89.23238 -77.24408 -77.23696 -24.84662
 Alpha  occ. eigenvalues --  -24.84576 -24.84194 -24.84028 -19.27320 -19.25476
 Alpha  occ. eigenvalues --  -19.25462 -14.49444 -10.39465 -10.39436 -10.39367
 Alpha  occ. eigenvalues --  -10.39099 -10.37259 -10.35438 -10.33749 -10.33553
 Alpha  occ. eigenvalues --  -10.32292 -10.31935 -10.31158 -10.31072 -10.30350
 Alpha  occ. eigenvalues --  -10.30318 -10.30212 -10.30184 -10.30087 -10.30040
 Alpha  occ. eigenvalues --  -10.29939 -10.29833 -10.29642 -10.29622 -10.29574
 Alpha  occ. eigenvalues --  -10.29530 -10.29521 -10.29491 -10.29432 -10.29396
 Alpha  occ. eigenvalues --  -10.29372 -10.29357 -10.29347 -10.29280 -10.29224
 Alpha  occ. eigenvalues --  -10.29212 -10.29184 -10.29118 -10.29118 -10.29112
 Alpha  occ. eigenvalues --  -10.29102 -10.29093 -10.29017 -10.28689 -10.28597
 Alpha  occ. eigenvalues --  -10.28447  -9.59086  -8.23399  -7.33772  -7.32850
 Alpha  occ. eigenvalues --   -7.32813  -6.68869  -6.68177  -6.18290  -6.18114
 Alpha  occ. eigenvalues --   -6.18096  -4.83568  -4.83543  -4.83228  -4.82875
 Alpha  occ. eigenvalues --   -4.82856  -4.82506  -3.55321  -2.24073  -2.23127
 Alpha  occ. eigenvalues --   -2.21291  -1.37250  -1.36327  -1.35350  -1.34894
 Alpha  occ. eigenvalues --   -1.22431  -1.16843  -1.11555  -1.05838  -0.98163
 Alpha  occ. eigenvalues --   -0.97567  -0.97533  -0.96552  -0.96246  -0.96047
 Alpha  occ. eigenvalues --   -0.95897  -0.95538  -0.89618  -0.88572  -0.87846
 Alpha  occ. eigenvalues --   -0.87019  -0.85341  -0.85110  -0.85008  -0.84989
 Alpha  occ. eigenvalues --   -0.84829  -0.84771  -0.84704  -0.84562  -0.84474
 Alpha  occ. eigenvalues --   -0.83948  -0.82263  -0.79073  -0.76189  -0.76025
 Alpha  occ. eigenvalues --   -0.75452  -0.75221  -0.71338  -0.71013  -0.70539
 Alpha  occ. eigenvalues --   -0.70450  -0.70370  -0.70133  -0.70001  -0.69296
 Alpha  occ. eigenvalues --   -0.69194  -0.69129  -0.69064  -0.66536  -0.66373
 Alpha  occ. eigenvalues --   -0.66314  -0.65990  -0.64906  -0.63725  -0.63304
 Alpha  occ. eigenvalues --   -0.61814  -0.61374  -0.61157  -0.61119  -0.60908
 Alpha  occ. eigenvalues --   -0.59843  -0.59527  -0.59304  -0.59056  -0.58545
 Alpha  occ. eigenvalues --   -0.58138  -0.57237  -0.56990  -0.56172  -0.56005
 Alpha  occ. eigenvalues --   -0.55879  -0.55220  -0.54810  -0.54674  -0.54542
 Alpha  occ. eigenvalues --   -0.54418  -0.54238  -0.53922  -0.53777  -0.53694
 Alpha  occ. eigenvalues --   -0.53589  -0.53442  -0.53247  -0.53135  -0.52676
 Alpha  occ. eigenvalues --   -0.51736  -0.51306  -0.51108  -0.50917  -0.50831
 Alpha  occ. eigenvalues --   -0.50730  -0.50430  -0.50326  -0.50093  -0.49983
 Alpha  occ. eigenvalues --   -0.49578  -0.49335  -0.49014  -0.48479  -0.47435
 Alpha  occ. eigenvalues --   -0.47360  -0.46837  -0.46737  -0.46676  -0.46428
 Alpha  occ. eigenvalues --   -0.45756  -0.45207  -0.44948  -0.44824  -0.44007
 Alpha  occ. eigenvalues --   -0.43469  -0.43253  -0.42873  -0.42799  -0.42749
 Alpha  occ. eigenvalues --   -0.42485  -0.42260  -0.42127  -0.41625  -0.41354
 Alpha  occ. eigenvalues --   -0.41055  -0.40837  -0.40765  -0.40625  -0.40309
 Alpha  occ. eigenvalues --   -0.39596  -0.38861  -0.38693  -0.36295  -0.35508
 Alpha  occ. eigenvalues --   -0.35289  -0.34788  -0.34284  -0.34176  -0.34040
 Alpha  occ. eigenvalues --   -0.33845  -0.33683  -0.33580  -0.33571  -0.33210
 Alpha  occ. eigenvalues --   -0.32897  -0.32849  -0.31792  -0.30824  -0.30329
 Alpha  occ. eigenvalues --   -0.29063  -0.21672
 Alpha virt. eigenvalues --    0.01462   0.01761   0.01861   0.02853   0.03004
 Alpha virt. eigenvalues --    0.03786   0.03956   0.04535   0.04931   0.05191
 Alpha virt. eigenvalues --    0.05391   0.06038   0.06545   0.07540   0.08120

 Mulliken charges:
               1
     1  C    0.293728
     2  C   -0.329207
     3  H    0.211206
     4  C   -0.188492
     5  H    0.147248
     6  C    0.382839
     7  C   -0.471075
     8  H    0.176827
     9  C    0.031734
    10  C   -0.095476
    11  C    0.265051
    12  C    0.176027
    13  C    0.183707
    14  C    0.177693
    15  C   -0.017032
    16  N   -0.300546
    17  S    0.835068
    18  O   -0.496941
    19  O   -0.480843
    20  C   -0.169007
    21  Cl  -0.109633
    22  H    0.206467
    23  H    0.210796
    24  F   -0.195027
    25  F   -0.198369
    26  F   -0.198827
    27  F   -0.218408
    28  O   -0.311721
    29  C   -0.223079
    30  H    0.132211
    31  H    0.131998
    32  H    0.154866
    33  Pd  -0.335051
    34  P    0.357897
    35  P    0.384948
    36  C   -0.116547
    37  C    0.004389
    38  C    0.020460
    39  C   -0.109629
    40  H    0.185013
    41  C   -0.226596
    42  H    0.154918
    43  C   -0.106088
    44  H    0.158459
    45  C   -0.216518
    46  H    0.151861
    47  C   -0.211422
    48  H    0.227362
    49  C   -0.109175
    50  C   -0.150438
    51  H    0.203036
    52  C   -0.201663
    53  H    0.155984
    54  C   -0.130001
    55  H    0.159578
    56  C   -0.182365
    57  H    0.157462
    58  C   -0.142693
    59  H    0.179966
    60  C   -0.016671
    61  C   -0.153835
    62  H    0.195435
    63  C   -0.236880
    64  H    0.154505
    65  C   -0.104651
    66  H    0.161736
    67  C   -0.181225
    68  H    0.159174
    69  C   -0.177643
    70  H    0.177075
    71  C    0.013143
    72  C   -0.211400
    73  H    0.180241
    74  C   -0.190377
    75  H    0.154922
    76  C   -0.106528
    77  H    0.158586
    78  C   -0.215763
    79  H    0.151576
    80  C   -0.126452
    81  H    0.219704
    82  C   -0.146724
    83  C   -0.163431
    84  C   -0.138724
    85  C   -0.212701
    86  H    0.178935
    87  H    0.161639
    88  H    0.161982
    89  H    0.177420
 Sum of Mulliken charges =  -0.00000

 Dipole moment (field-independent basis, Debye):
    X=             -6.4557    Y=              7.7513    Z=             -4.1991  Tot=             10.9266
 Quadrupole moment (field-independent basis, Debye-Ang):
   XX=           -321.2363   YY=           -358.6363   ZZ=           -366.0929
   XY=             14.1980   XZ=              5.9691   YZ=             11.9022

 Normal termination of Gaussian 09 at Tue Jun 24 11:40:18 2025.
