 Gaussian 09, Revision D.01,
 Gaussian 09:  ES64L-G09RevD.01 24-Apr-2013

 ----------------------------------------------------------------------
 #p sp geom=allcheck scrf(solvent=dichloromethane,smd) wb97xd genecp te
 mperature=313 integral(grid=ultrafine)
 ----------------------------------------------------------------------

 Structure from the checkpoint file:  "ts_darfpe-v1-released-sp.chk"
 -----
 title
 -----
 Charge =  0 Multiplicity = 1

                         Standard orientation:
 ---------------------------------------------------------------------
 Center     Atomic      Atomic             Coordinates (Angstroms)
 Number     Number       Type             X           Y           Z
 ---------------------------------------------------------------------
      1          6           0        1.197520    2.172372    0.592854
      2          6           0        1.404034    3.207596   -0.331469
      3          1           0        0.583108    3.577766   -0.946712
      4          6           0        2.690571    3.700810   -0.480821
      5          1           0        2.912169    4.458076   -1.236150
      6          6           0        3.751723    3.225180    0.312580
      7          6           0        3.499065    2.324354    1.345960
      8          1           0        4.277019    2.027808    2.047310
      9          6           0        2.194608    1.831744    1.523191
     10          6           0        1.657658    1.131920    2.668252
     11          6           0        2.349122    0.449091    3.667931
     12          6           0        1.675302   -0.103391    4.748346
     13          6           0        0.286420    0.025651    4.833405
     14          6           0       -0.422612    0.683912    3.835033
     15          6           0        0.245717    1.250893    2.750101
     16          7           0       -0.356951    1.876112    1.655553
     17         16           0       -1.537000    3.057625    1.793470
     18          8           0       -1.444638    3.685352    3.098648
     19          8           0       -1.465017    3.823424    0.559375
     20          6           0       -3.082980    2.102756    1.719016
     21         17           0       -4.426651    3.112017    1.189878
     22          1           0       -3.277910    1.718405    2.723701
     23          1           0       -2.925750    1.287034    1.003809
     24          9           0       -1.747961    0.726634    3.932608
     25          9           0       -0.358072   -0.519686    5.850446
     26          9           0        2.331158   -0.760321    5.691070
     27          9           0        3.669957    0.304779    3.599737
     28          8           0        4.975486    3.719284    0.010728
     29          6           0        6.070535    3.311639    0.782825
     30          1           0        6.954859    3.801922    0.357051
     31          1           0        6.215289    2.218237    0.741211
     32          1           0        5.963804    3.617005    1.838501
     33         46           0       -0.174864    0.830325   -0.146979
     34         15           0        1.141375   -0.441245   -1.518337
     35         15           0       -1.924211   -0.251232   -1.306263
     36          6           0       -1.238248   -0.326170   -3.027676
     37          1           0       -1.888995   -0.900035   -3.700155
     38          1           0       -1.275430    0.730651   -3.333184
     39          6           0        0.202762   -0.839876   -3.086176
     40          1           0        0.731744   -0.391064   -3.936362
     41          1           0        0.218786   -1.925076   -3.234928
     42          6           0       -2.028657   -1.973949   -0.688707
     43          6           0       -2.144544   -2.123915    0.698842
     44          6           0       -1.943145   -3.339264    1.340209
     45          6           0       -1.625769   -4.461368    0.575298
     46          6           0       -1.535973   -4.356549   -0.809788
     47          6           0       -1.773634   -3.131136   -1.427674
     48          6           0       -3.631577    0.349908   -1.547514
     49          6           0       -3.759706    1.664709   -2.015694
     50          6           0       -4.987451    2.306159   -2.106373
     51          6           0       -6.136112    1.631036   -1.696645
     52          6           0       -6.043491    0.326676   -1.217058
     53          6           0       -4.802345   -0.302304   -1.149047
     54          6           0        2.743829    0.273035   -2.000046
     55          6           0        3.952783   -0.035756   -1.369173
     56          6           0        5.105429    0.705946   -1.601926
     57          6           0        5.063111    1.814055   -2.443593
     58          6           0        3.869343    2.157160   -3.073621
     59          6           0        2.732914    1.396002   -2.831758
     60          6           0        1.536082   -2.120355   -0.895550
     61          6           0        1.258429   -2.492462    0.421866
     62          6           0        1.423570   -3.805049    0.859384
     63          6           0        1.909188   -4.772040   -0.015912
     64          6           0        2.227987   -4.422066   -1.328588
     65          6           0        2.057628   -3.105220   -1.740044
     66          9           0       -2.672370    2.336740   -2.371369
     67          9           0       -5.071146    3.541913   -2.550791
     68          9           0       -7.307164    2.225998   -1.761305
     69          9           0       -7.132989   -0.312503   -0.837077
     70          9           0       -4.777567   -1.546323   -0.692141
     71          9           0       -2.417251   -1.069215    1.451677
     72          9           0       -2.023469   -3.432397    2.649974
     73          9           0       -1.380111   -5.612140    1.160580
     74          9           0       -1.220295   -5.418146   -1.528882
     75          9           0       -1.709427   -3.107284   -2.753327
     76          9           0        1.589114    1.785117   -3.387879
     77          9           0        4.039746   -1.040242   -0.509207
     78          9           0        6.232594    0.392052   -0.986076
     79          9           0        6.144838    2.535878   -2.632922
     80          9           0        3.808787    3.227872   -3.841424
     81          9           0        0.794526   -1.626491    1.306576
     82          9           0        1.098657   -4.136573    2.094029
     83          9           0        2.057325   -6.012467    0.388751
     84          9           0        2.703178   -5.331552   -2.155184
     85          9           0        2.394628   -2.796365   -2.984291
 ---------------------------------------------------------------------

 SCF Done:  E(RwB97XD) =  -5877.49256568     A.U. after   24 cycles

 The electronic state is 1-A.
 Alpha  occ. eigenvalues -- -101.70541 -89.23158 -77.27786 -77.27495 -24.86590
 Alpha  occ. eigenvalues --  -24.86525 -24.86195 -24.86143 -24.86111 -24.86108
 Alpha  occ. eigenvalues --  -24.86106 -24.86094 -24.86029 -24.86019 -24.86006
 Alpha  occ. eigenvalues --  -24.85967 -24.85873 -24.85798 -24.85707 -24.85697
 Alpha  occ. eigenvalues --  -24.85693 -24.85634 -24.85622 -24.85614 -24.84755
 Alpha  occ. eigenvalues --  -24.84732 -24.84589 -24.84287 -19.27807 -19.25545
 Alpha  occ. eigenvalues --  -19.25169 -14.49168 -10.42130 -10.42093 -10.41998
 Alpha  occ. eigenvalues --  -10.41885 -10.41794 -10.41745 -10.41632 -10.41551
 Alpha  occ. eigenvalues --  -10.41411 -10.41410 -10.41407 -10.41290 -10.41263
 Alpha  occ. eigenvalues --  -10.41252 -10.41229 -10.41157 -10.40892 -10.40867
 Alpha  occ. eigenvalues --  -10.40668 -10.40607 -10.39650 -10.39355 -10.39340
 Alpha  occ. eigenvalues --  -10.39237 -10.37074 -10.35559 -10.34510 -10.34375
 Alpha  occ. eigenvalues --  -10.34359 -10.34277 -10.34067 -10.33877 -10.32462
 Alpha  occ. eigenvalues --  -10.31980 -10.31427 -10.31395 -10.30282 -10.29078
 Alpha  occ. eigenvalues --  -10.29017 -10.28853  -9.59092  -8.23307  -7.33772
 Alpha  occ. eigenvalues --   -7.32858  -7.32824  -6.72105  -6.71842  -6.18198
 Alpha  occ. eigenvalues --   -6.18025  -6.18003  -4.86871  -4.86750  -4.86625
 Alpha  occ. eigenvalues --   -4.86497  -4.86428  -4.86117  -3.56671  -2.25440
 Alpha  occ. eigenvalues --   -2.24531  -2.22618  -1.39393  -1.39252  -1.38902
 Alpha  occ. eigenvalues --   -1.38740  -1.38593  -1.38527  -1.38202  -1.38096
 Alpha  occ. eigenvalues --   -1.38063  -1.38025  -1.37665  -1.37532  -1.37402
 Alpha  occ. eigenvalues --   -1.37129  -1.37082  -1.36786  -1.36769  -1.36762
 Alpha  occ. eigenvalues --   -1.36607  -1.36551  -1.36407  -1.36253  -1.35686
 Alpha  occ. eigenvalues --   -1.35061  -1.22339  -1.17273  -1.11555  -1.05399
 Alpha  occ. eigenvalues --   -1.01674  -1.01319  -1.01041  -1.00927  -0.98104
 Alpha  occ. eigenvalues --   -0.97562  -0.96216  -0.93199  -0.91619  -0.89911
 Alpha  occ. eigenvalues --   -0.89720  -0.89522  -0.89205  -0.89124  -0.88927
 Alpha  occ. eigenvalues --   -0.88808  -0.88656  -0.87092  -0.85296  -0.84299
 Alpha  occ. eigenvalues --   -0.82178  -0.82072  -0.80207  -0.79286  -0.78258
 Alpha  occ. eigenvalues --   -0.78069  -0.77775  -0.77651  -0.77326  -0.77210
 Alpha  occ. eigenvalues --   -0.76413  -0.75918  -0.75558  -0.73128  -0.71485
 Alpha  occ. eigenvalues --   -0.71416  -0.71090  -0.70880  -0.70805  -0.70639
 Alpha  occ. eigenvalues --   -0.70598  -0.70403  -0.70303  -0.70166  -0.69500
 Alpha  occ. eigenvalues --   -0.69392  -0.68901  -0.68853  -0.67560  -0.66844
 Alpha  occ. eigenvalues --   -0.66684  -0.66131  -0.66118  -0.65710  -0.65661
 Alpha  occ. eigenvalues --   -0.65345  -0.65281  -0.65168  -0.65098  -0.65071
 Alpha  occ. eigenvalues --   -0.64720  -0.64501  -0.63921  -0.63633  -0.63556
 Alpha  occ. eigenvalues --   -0.63361  -0.63272  -0.63140  -0.62998  -0.62881
 Alpha  occ. eigenvalues --   -0.62543  -0.61897  -0.61647  -0.61553  -0.61067
 Alpha  occ. eigenvalues --   -0.60835  -0.60809  -0.60520  -0.60439  -0.59943
 Alpha  occ. eigenvalues --   -0.59750  -0.59632  -0.59266  -0.59040  -0.58576
 Alpha  occ. eigenvalues --   -0.58296  -0.58067  -0.57929  -0.57807  -0.57706
 Alpha  occ. eigenvalues --   -0.57674  -0.57601  -0.57433  -0.57298  -0.57253
 Alpha  occ. eigenvalues --   -0.56868  -0.56558  -0.56336  -0.56173  -0.55728
 Alpha  occ. eigenvalues --   -0.55509  -0.55468  -0.55368  -0.55216  -0.55183
 Alpha  occ. eigenvalues --   -0.55107  -0.55039  -0.54684  -0.54578  -0.54527
 Alpha  occ. eigenvalues --   -0.53997  -0.53850  -0.53617  -0.52902  -0.52568
 Alpha  occ. eigenvalues --   -0.52193  -0.52145  -0.52006  -0.51832  -0.51752
 Alpha  occ. eigenvalues --   -0.51702  -0.51488  -0.50543  -0.50116  -0.49731
 Alpha  occ. eigenvalues --   -0.49270  -0.48833  -0.48731  -0.48706  -0.48649
 Alpha  occ. eigenvalues --   -0.48357  -0.48044  -0.47697  -0.47518  -0.46947
 Alpha  occ. eigenvalues --   -0.46735  -0.46237  -0.45473  -0.45252  -0.45189
 Alpha  occ. eigenvalues --   -0.44677  -0.44342  -0.43958  -0.43593  -0.43144
 Alpha  occ. eigenvalues --   -0.42412  -0.41821  -0.41377  -0.41215  -0.40904
 Alpha  occ. eigenvalues --   -0.40652  -0.39396  -0.38910  -0.37128  -0.36843
 Alpha  occ. eigenvalues --   -0.35977  -0.35672  -0.35129  -0.35004  -0.34857
 Alpha  occ. eigenvalues --   -0.34539  -0.34420  -0.34097  -0.33988  -0.33895
 Alpha  occ. eigenvalues --   -0.32340  -0.32038  -0.31012  -0.29500  -0.23495
 Alpha virt. eigenvalues --   -0.00335   0.00847   0.01302   0.01470   0.01563
 Alpha virt. eigenvalues --    0.03248   0.03791   0.04066   0.04295   0.04498
 Alpha virt. eigenvalues --    0.04566   0.05456   0.05923   0.06287   0.06571

 Mulliken charges:
               1
     1  C    0.318741
     2  C   -0.184843
     3  H    0.195016
     4  C   -0.206753
     5  H    0.152615
     6  C    0.302620
     7  C   -0.458015
     8  H    0.178184
     9  C    0.034390
    10  C   -0.148406
    11  C    0.243019
    12  C    0.170046
    13  C    0.189877
    14  C    0.252306
    15  C    0.047491
    16  N   -0.385333
    17  S    0.852210
    18  O   -0.483254
    19  O   -0.498572
    20  C   -0.153624
    21  Cl  -0.113122
    22  H    0.218311
    23  H    0.125169
    24  F   -0.226864
    25  F   -0.196021
    26  F   -0.198989
    27  F   -0.215053
    28  O   -0.311117
    29  C   -0.240176
    30  H    0.161607
    31  H    0.137164
    32  H    0.142930
    33  Pd  -0.141686
    34  P    0.477967
    35  P    0.361629
    36  C   -0.284753
    37  H    0.183866
    38  H    0.200732
    39  C   -0.406190
    40  H    0.199717
    41  H    0.198702
    42  C   -0.126555
    43  C    0.254449
    44  C    0.226220
    45  C    0.197311
    46  C    0.153019
    47  C    0.195031
    48  C   -0.281292
    49  C    0.253546
    50  C    0.143976
    51  C    0.222250
    52  C    0.170959
    53  C    0.295314
    54  C   -0.206288
    55  C    0.247677
    56  C    0.166262
    57  C    0.253357
    58  C    0.189429
    59  C    0.186647
    60  C   -0.323381
    61  C    0.254845
    62  C    0.141212
    63  C    0.266455
    64  C    0.168367
    65  C    0.297278
    66  F   -0.202314
    67  F   -0.183244
    68  F   -0.178990
    69  F   -0.186749
    70  F   -0.198910
    71  F   -0.206464
    72  F   -0.184297
    73  F   -0.177660
    74  F   -0.190580
    75  F   -0.202087
    76  F   -0.207412
    77  F   -0.208050
    78  F   -0.192449
    79  F   -0.183519
    80  F   -0.190803
    81  F   -0.197565
    82  F   -0.186344
    83  F   -0.176754
    84  F   -0.185501
    85  F   -0.197934
 Sum of Mulliken charges =   0.00000

 Dipole moment (field-independent basis, Debye):
    X=              1.0473    Y=             -7.8595    Z=             -9.5321  Tot=             12.3987
 Quadrupole moment (field-independent basis, Debye-Ang):
   XX=           -435.6178   YY=           -483.7347   ZZ=           -451.9702
   XY=             17.5966   XZ=              9.5557   YZ=             -1.2269

 Normal termination of Gaussian 09 at Wed Nov 29 16:27:55 2023.
