 Gaussian 09, Revision D.01,
 Gaussian 09:  ES64L-G09RevD.01 24-Apr-2013

 ----------------------------------------------------------------------
 #p sp geom=allcheck scrf(solvent=dichloromethane,smd) wb97xd genecp te
 mperature=313 integral(grid=ultrafine)
 ----------------------------------------------------------------------

 Structure from the checkpoint file:  "ts_ptbu3-v6-released-sp.chk"
 -----
 title
 -----
 Charge =  0 Multiplicity = 1

                         Standard orientation:
 ---------------------------------------------------------------------
 Center     Atomic      Atomic             Coordinates (Angstroms)
 Number     Number       Type             X           Y           Z
 ---------------------------------------------------------------------
      1         46           0       -0.714025    0.406261   -0.777234
      2         15           0       -2.891321    0.263565   -0.038337
      3          6           0       -3.575593    2.050427   -0.017736
      4          6           0       -3.059632    2.751973   -1.284354
      5          1           0       -3.459394    2.336084   -2.214437
      6          1           0       -3.347996    3.815547   -1.244306
      7          1           0       -1.957922    2.711748   -1.341548
      8          6           0       -5.097521    2.174284    0.062331
      9          1           0       -5.602481    1.751736   -0.815946
     10          1           0       -5.368869    3.242375    0.107523
     11          1           0       -5.511368    1.693036    0.958201
     12          6           0       -2.951115    2.808964    1.158012
     13          1           0       -3.184034    3.880157    1.043272
     14          1           0       -3.347756    2.493114    2.131020
     15          1           0       -1.855094    2.706165    1.169883
     16          6           0       -3.961962   -0.801497   -1.210828
     17          6           0       -5.313013   -1.240640   -0.644968
     18          1           0       -5.937772   -0.393097   -0.333307
     19          1           0       -5.866242   -1.787962   -1.426394
     20          1           0       -5.207579   -1.921864    0.209681
     21          6           0       -4.190139   -0.035417   -2.518510
     22          1           0       -3.241209    0.319578   -2.948500
     23          1           0       -4.642371   -0.726707   -3.248155
     24          1           0       -4.874181    0.815704   -2.412264
     25          6           0       -3.133687   -2.033121   -1.603163
     26          1           0       -3.725810   -2.647532   -2.301642
     27          1           0       -2.212152   -1.725419   -2.117550
     28          1           0       -2.849722   -2.667404   -0.757321
     29          6           0       -2.972201   -0.463438    1.729732
     30          6           0       -4.292444   -0.225257    2.464577
     31          1           0       -4.474386    0.839983    2.660729
     32          1           0       -4.248592   -0.728846    3.444744
     33          1           0       -5.160245   -0.628129    1.927421
     34          6           0       -1.820500    0.128193    2.556053
     35          1           0       -0.856422    0.002758    2.044583
     36          1           0       -1.766106   -0.415108    3.513777
     37          1           0       -1.950839    1.189337    2.789424
     38          6           0       -2.698614   -1.969697    1.648260
     39          1           0       -1.766134   -2.186013    1.106763
     40          1           0       -2.580633   -2.354916    2.673994
     41          1           0       -3.518544   -2.532414    1.184170
     42          6           0        0.567077   -1.066179   -0.182861
     43          6           0        0.323863   -2.313811   -0.783293
     44          1           0       -0.085449   -2.368427   -1.791966
     45          6           0        0.567449   -3.470765   -0.057787
     46          1           0        0.329245   -4.450751   -0.476491
     47          6           0        1.106078   -3.418291    1.241776
     48          6           0        1.491229   -2.190049    1.777254
     49          1           0        2.009616   -2.122978    2.732100
     50          6           0        1.272619   -1.015265    1.039864
     51          6           0        1.878747    0.279790    1.288281
     52          6           0        2.417804    0.779826    2.470277
     53          6           0        3.010135    2.038052    2.497741
     54          6           0        3.053791    2.811518    1.336269
     55          6           0        2.501495    2.342927    0.143671
     56          6           0        1.938244    1.066137    0.107755
     57          7           0        1.304689    0.477918   -0.997631
     58         16           0        2.109719    0.134366   -2.429310
     59          8           0        1.129689   -0.530954   -3.271221
     60          8           0        2.848993    1.293399   -2.888049
     61          6           0        3.323504   -1.085517   -1.863887
     62         17           0        4.377234   -1.572565   -3.184350
     63          1           0        2.773948   -1.952109   -1.475097
     64          1           0        3.913107   -0.605665   -1.070802
     65          9           0        2.483218    3.150764   -0.896762
     66          9           0        3.579073    4.023329    1.385041
     67          9           0        3.515106    2.517364    3.622091
     68          9           0        2.365542    0.076101    3.598230
     69          8           0        1.255464   -4.604194    1.870006
     70          6           0        1.818016   -4.612774    3.150747
     71          1           0        1.227511   -4.007907    3.862244
     72          1           0        2.856730   -4.236570    3.147584
     73          1           0        1.821414   -5.656918    3.488212
 ---------------------------------------------------------------------

 SCF Done:  E(RwB97XD) =  -3019.49424791     A.U. after   24 cycles

 The electronic state is 1-A.
 Alpha  occ. eigenvalues -- -101.70571 -89.23311 -77.22329 -24.84899 -24.84870
 Alpha  occ. eigenvalues --  -24.84547 -24.84280 -19.28038 -19.25549 -19.25475
 Alpha  occ. eigenvalues --  -14.49251 -10.39867 -10.39784 -10.39702 -10.39584
 Alpha  occ. eigenvalues --  -10.37306 -10.35783 -10.34731 -10.34509 -10.32667
 Alpha  occ. eigenvalues --  -10.32465 -10.30775 -10.30717 -10.30664 -10.30635
 Alpha  occ. eigenvalues --  -10.29339 -10.29229 -10.29121 -10.26923 -10.26897
 Alpha  occ. eigenvalues --  -10.26872 -10.26861 -10.26838 -10.26813 -10.26708
 Alpha  occ. eigenvalues --  -10.26455 -10.26322  -9.59120  -8.23457  -7.33807
 Alpha  occ. eigenvalues --   -7.32884  -7.32847  -6.66754  -6.18350  -6.18176
 Alpha  occ. eigenvalues --   -6.18151  -4.81428  -4.81414  -4.81126  -3.53485
 Alpha  occ. eigenvalues --   -2.22343  -2.21297  -2.19510  -1.37592  -1.36692
 Alpha  occ. eigenvalues --   -1.35767  -1.35265  -1.22533  -1.17620  -1.11695
 Alpha  occ. eigenvalues --   -1.05873  -0.98288  -0.97748  -0.96396  -0.92936
 Alpha  occ. eigenvalues --   -0.90427  -0.90341  -0.90081  -0.87217  -0.85460
 Alpha  occ. eigenvalues --   -0.84530  -0.82343  -0.79578  -0.78823  -0.78177
 Alpha  occ. eigenvalues --   -0.78056  -0.77610  -0.77412  -0.76431  -0.76372
 Alpha  occ. eigenvalues --   -0.75800  -0.73576  -0.71664  -0.70767  -0.69629
 Alpha  occ. eigenvalues --   -0.67050  -0.66848  -0.66319  -0.64014  -0.63850
 Alpha  occ. eigenvalues --   -0.63777  -0.63592  -0.62128  -0.61808  -0.60632
 Alpha  occ. eigenvalues --   -0.60343  -0.59621  -0.59102  -0.58747  -0.57440
 Alpha  occ. eigenvalues --   -0.57121  -0.56725  -0.56281  -0.55768  -0.55165
 Alpha  occ. eigenvalues --   -0.55077  -0.54896  -0.54065  -0.53905  -0.53631
 Alpha  occ. eigenvalues --   -0.53552  -0.52977  -0.52862  -0.52107  -0.51779
 Alpha  occ. eigenvalues --   -0.51281  -0.50963  -0.50800  -0.50608  -0.49955
 Alpha  occ. eigenvalues --   -0.49362  -0.48998  -0.48667  -0.47640  -0.47433
 Alpha  occ. eigenvalues --   -0.46890  -0.46815  -0.46376  -0.45683  -0.45521
 Alpha  occ. eigenvalues --   -0.45162  -0.45127  -0.44526  -0.44293  -0.43868
 Alpha  occ. eigenvalues --   -0.43774  -0.43168  -0.42677  -0.42625  -0.42239
 Alpha  occ. eigenvalues --   -0.42180  -0.42082  -0.41841  -0.41273  -0.40942
 Alpha  occ. eigenvalues --   -0.40733  -0.40371  -0.39564  -0.38917  -0.38707
 Alpha  occ. eigenvalues --   -0.36896  -0.36741  -0.36338  -0.36322  -0.34644
 Alpha  occ. eigenvalues --   -0.32439  -0.32289  -0.31986  -0.31571  -0.31129
 Alpha  occ. eigenvalues --   -0.28469  -0.24632
 Alpha virt. eigenvalues --    0.01068   0.02603   0.04036   0.06516   0.07354
 Alpha virt. eigenvalues --    0.08320   0.08515   0.09082   0.09914   0.11063
 Alpha virt. eigenvalues --    0.11864   0.12470   0.12778   0.13163   0.13723

 Mulliken charges:
               1
     1  Pd  -0.121721
     2  P    0.225471
     3  C    0.137144
     4  C   -0.469063
     5  H    0.160124
     6  H    0.141521
     7  H    0.157590
     8  C   -0.441324
     9  H    0.135105
    10  H    0.140455
    11  H    0.152093
    12  C   -0.496952
    13  H    0.145324
    14  H    0.140016
    15  H    0.170651
    16  C    0.160408
    17  C   -0.448399
    18  H    0.153240
    19  H    0.140551
    20  H    0.135634
    21  C   -0.509044
    22  H    0.174965
    23  H    0.146056
    24  H    0.139361
    25  C   -0.459171
    26  H    0.141995
    27  H    0.140509
    28  H    0.155566
    29  C    0.185788
    30  C   -0.443068
    31  H    0.134782
    32  H    0.138693
    33  H    0.153160
    34  C   -0.438531
    35  H    0.120464
    36  H    0.135780
    37  H    0.152605
    38  C   -0.484667
    39  H    0.128044
    40  H    0.140933
    41  H    0.144634
    42  C    0.069346
    43  C   -0.263592
    44  H    0.198947
    45  C   -0.228427
    46  H    0.149354
    47  C    0.386017
    48  C   -0.421094
    49  H    0.179283
    50  C   -0.005257
    51  C   -0.020444
    52  C    0.294587
    53  C    0.166533
    54  C    0.191039
    55  C    0.184327
    56  C   -0.035908
    57  N   -0.264470
    58  S    0.834983
    59  O   -0.488010
    60  O   -0.482538
    61  C   -0.167903
    62  Cl  -0.109605
    63  H    0.200995
    64  H    0.208182
    65  F   -0.190479
    66  F   -0.194227
    67  F   -0.195843
    68  F   -0.214135
    69  O   -0.302658
    70  C   -0.226943
    71  H    0.137399
    72  H    0.134779
    73  H    0.159043
 Sum of Mulliken charges =   0.00000

 Dipole moment (field-independent basis, Debye):
    X=             -8.3307    Y=             -3.3496    Z=              6.4292  Tot=             11.0433
 Quadrupole moment (field-independent basis, Debye-Ang):
   XX=           -246.2369   YY=           -262.3645   ZZ=           -279.9213
   XY=            -17.9081   XZ=             15.4216   YZ=             -5.4900

 Normal termination of Gaussian 09 at Wed Nov 29 18:00:20 2023.
