 Gaussian 09, Revision D.01,
 Gaussian 09:  ES64L-G09RevD.01 24-Apr-2013

 ----------------------------------------------------------------------
 #p sp geom=allcheck scrf(solvent=dichloromethane,smd) wb97xd genecp te
 mperature=313 integral(grid=ultrafine)
 ----------------------------------------------------------------------

 Structure from the checkpoint file:  "ts-neopentyl-v5-released-sp.chk"
 -----
 title
 -----
 Charge =  0 Multiplicity = 1

                         Standard orientation:
 ---------------------------------------------------------------------
 Center     Atomic      Atomic             Coordinates (Angstroms)
 Number     Number       Type             X           Y           Z
 ---------------------------------------------------------------------
      1          6           0       -0.629223    1.170967   -0.556952
      2          6           0       -0.426905    2.326997   -1.330899
      3          1           0        0.088005    2.264034   -2.290422
      4          6           0       -0.838528    3.553738   -0.828253
      5          1           0       -0.637646    4.476250   -1.377016
      6          6           0       -1.498835    3.651644    0.410583
      7          6           0       -1.823511    2.490797    1.112364
      8          1           0       -2.422441    2.522869    2.020834
      9          6           0       -1.434016    1.243989    0.602300
     10          6           0       -1.925197   -0.056153    1.020437
     11          6           0       -2.492967   -0.430512    2.233365
     12          6           0       -2.939737   -1.733358    2.429219
     13          6           0       -2.803845   -2.675539    1.408135
     14          6           0       -2.224265   -2.328739    0.187843
     15          6           0       -1.814354   -1.013106   -0.020039
     16          7           0       -1.161347   -0.525443   -1.164929
     17         16           0       -1.838855   -0.509384   -2.690340
     18          8           0       -0.815528    0.050547   -3.562804
     19          8           0       -2.482996   -1.776031   -2.973562
     20          6           0       -3.128047    0.756064   -2.616631
     21         17           0       -4.436863    0.342144   -1.516823
     22          1           0       -3.506272    0.827783   -3.645796
     23          1           0       -2.654691    1.696694   -2.306296
     24          9           0       -2.035136   -3.276694   -0.709283
     25          9           0       -3.185245   -3.923165    1.623382
     26          9           0       -3.467722   -2.095148    3.587313
     27          9           0       -2.600530    0.438726    3.235460
     28          8           0       -1.814877    4.901015    0.816898
     29          6           0       -2.502246    5.052635    2.025523
     30          1           0       -1.933543    4.636047    2.876407
     31          1           0       -3.496043    4.570866    1.998313
     32          1           0       -2.636009    6.130716    2.180907
     33         46           0        0.815896   -0.257733   -0.768787
     34         15           0        2.847106    0.188202    0.204725
     35          6           0        3.689353   -1.372732    0.775012
     36          6           0        4.055794    0.959725   -1.031643
     37          6           0        2.694396    1.213639    1.792120
     38          6           0        2.981072   -2.729653    0.540262
     39          1           0        3.876255   -1.271551    1.854824
     40          1           0        4.685668   -1.402642    0.305909
     41          6           0        5.392180    1.389275   -0.432127
     42          6           0        4.295537   -0.100893   -2.111678
     43          6           0        3.368125    2.148597   -1.708958
     44          6           0        2.195346    2.616998    1.444776
     45          6           0        1.618610    0.508602    2.626235
     46          6           0        3.973696    1.313871    2.623657
     47          6           0        2.647312   -2.959835   -0.933054
     48          6           0        3.953357   -3.822394    0.998456
     49          6           0        1.698880   -2.831348    1.368605
     50          1           0        5.869016    0.587434    0.152584
     51          1           0        6.087107    1.662500   -1.243666
     52          1           0        5.286896    2.271333    0.214278
     53          1           0        4.882953    0.348974   -2.928521
     54          1           0        4.861831   -0.966998   -1.741008
     55          1           0        3.347345   -0.461894   -2.539716
     56          1           0        3.153655    2.971609   -1.016315
     57          1           0        2.418615    1.838159   -2.169384
     58          1           0        4.023083    2.541329   -2.504148
     59          1           0        1.329052    2.589970    0.768626
     60          1           0        1.882334    3.127781    2.369898
     61          1           0        2.981302    3.232081    0.984272
     62          1           0        1.434066    1.093150    3.542378
     63          1           0        0.669415    0.426940    2.077296
     64          1           0        1.925529   -0.500584    2.935035
     65          1           0        3.745735    1.849539    3.560072
     66          1           0        4.374485    0.330098    2.908766
     67          1           0        4.768932    1.871198    2.114317
     68          1           0        3.543614   -2.925790   -1.569790
     69          1           0        1.933849   -2.203753   -1.320823
     70          1           0        2.167275   -3.940494   -1.070668
     71          1           0        4.223547   -3.695474    2.058948
     72          1           0        3.501818   -4.820132    0.884017
     73          1           0        4.883116   -3.803745    0.407599
     74          1           0        1.206512   -3.800979    1.197310
     75          1           0        1.909049   -2.746497    2.446550
     76          1           0        0.979560   -2.039708    1.095646
 ---------------------------------------------------------------------

 SCF Done:  E(RwB97XD) =  -3058.82914114     A.U. after   24 cycles

 The electronic state is 1-A.
 Alpha  occ. eigenvalues -- -101.70584 -89.23382 -77.22031 -24.84706 -24.84700
 Alpha  occ. eigenvalues --  -24.84352 -24.84071 -19.27915 -19.25644 -19.25555
 Alpha  occ. eigenvalues --  -14.49249 -10.39654 -10.39545 -10.39389 -10.39354
 Alpha  occ. eigenvalues --  -10.37249 -10.35586 -10.34573 -10.34459 -10.32582
 Alpha  occ. eigenvalues --  -10.32131 -10.30582 -10.30394 -10.30343 -10.29616
 Alpha  occ. eigenvalues --  -10.29234 -10.29168 -10.29064 -10.28056 -10.27006
 Alpha  occ. eigenvalues --  -10.26915 -10.26832 -10.26679 -10.26665 -10.26631
 Alpha  occ. eigenvalues --  -10.26623 -10.26428 -10.26141  -9.59139  -8.23519
 Alpha  occ. eigenvalues --   -7.33821  -7.32905  -7.32870  -6.66528  -6.18408
 Alpha  occ. eigenvalues --   -6.18241  -6.18217  -4.81210  -4.81183  -4.80895
 Alpha  occ. eigenvalues --   -3.53560  -2.22431  -2.21397  -2.19600  -1.37378
 Alpha  occ. eigenvalues --   -1.36461  -1.35537  -1.35052  -1.22574  -1.17481
 Alpha  occ. eigenvalues --   -1.11749  -1.05866  -0.98300  -0.97560  -0.96260
 Alpha  occ. eigenvalues --   -0.93043  -0.91520  -0.90425  -0.89940  -0.87054
 Alpha  occ. eigenvalues --   -0.85344  -0.84377  -0.82336  -0.80148  -0.79488
 Alpha  occ. eigenvalues --   -0.78473  -0.77979  -0.77847  -0.77439  -0.77323
 Alpha  occ. eigenvalues --   -0.76951  -0.76581  -0.75664  -0.71669  -0.70898
 Alpha  occ. eigenvalues --   -0.70654  -0.69490  -0.66875  -0.66663  -0.66151
 Alpha  occ. eigenvalues --   -0.63884  -0.63778  -0.63187  -0.62626  -0.61988
 Alpha  occ. eigenvalues --   -0.61657  -0.60406  -0.59860  -0.59522  -0.58940
 Alpha  occ. eigenvalues --   -0.58532  -0.57273  -0.56858  -0.56242  -0.56140
 Alpha  occ. eigenvalues --   -0.55835  -0.55600  -0.55310  -0.54559  -0.54140
 Alpha  occ. eigenvalues --   -0.54099  -0.53515  -0.53405  -0.52966  -0.52619
 Alpha  occ. eigenvalues --   -0.52420  -0.51931  -0.51744  -0.51649  -0.50925
 Alpha  occ. eigenvalues --   -0.50771  -0.50118  -0.49605  -0.49268  -0.48669
 Alpha  occ. eigenvalues --   -0.48079  -0.47916  -0.47454  -0.46866  -0.46523
 Alpha  occ. eigenvalues --   -0.46061  -0.45740  -0.45523  -0.44947  -0.44696
 Alpha  occ. eigenvalues --   -0.44431  -0.44113  -0.43962  -0.43726  -0.43280
 Alpha  occ. eigenvalues --   -0.42899  -0.42694  -0.42589  -0.42110  -0.41559
 Alpha  occ. eigenvalues --   -0.41151  -0.41115  -0.40944  -0.40685  -0.40346
 Alpha  occ. eigenvalues --   -0.40269  -0.39925  -0.39460  -0.38701  -0.37552
 Alpha  occ. eigenvalues --   -0.36935  -0.36369  -0.36302  -0.34584  -0.32366
 Alpha  occ. eigenvalues --   -0.32295  -0.32100  -0.31529  -0.31138  -0.28347
 Alpha  occ. eigenvalues --   -0.24259
 Alpha virt. eigenvalues --    0.01328   0.02821   0.04289   0.07231   0.07716
 Alpha virt. eigenvalues --    0.07907   0.09096   0.09217   0.10055   0.10803
 Alpha virt. eigenvalues --    0.11774   0.12014   0.12933   0.13243   0.13426

 Mulliken charges:
               1
     1  C    0.177763
     2  C   -0.289633
     3  H    0.205181
     4  C   -0.210698
     5  H    0.148160
     6  C    0.377150
     7  C   -0.425991
     8  H    0.177804
     9  C   -0.046320
    10  C   -0.017872
    11  C    0.307579
    12  C    0.165900
    13  C    0.201671
    14  C    0.193076
    15  C   -0.079921
    16  N   -0.248323
    17  S    0.828288
    18  O   -0.493673
    19  O   -0.481001
    20  C   -0.166426
    21  Cl  -0.104228
    22  H    0.216250
    23  H    0.195969
    24  F   -0.195647
    25  F   -0.195818
    26  F   -0.197646
    27  F   -0.216190
    28  O   -0.303993
    29  C   -0.226819
    30  H    0.136440
    31  H    0.135696
    32  H    0.158164
    33  Pd  -0.145749
    34  P    0.274502
    35  C   -0.505660
    36  C    0.137355
    37  C    0.180348
    38  C    0.325569
    39  H    0.141583
    40  H    0.163680
    41  C   -0.446296
    42  C   -0.476073
    43  C   -0.448329
    44  C   -0.467541
    45  C   -0.450852
    46  C   -0.416343
    47  C   -0.486908
    48  C   -0.407402
    49  C   -0.489425
    50  H    0.150193
    51  H    0.141847
    52  H    0.134959
    53  H    0.146851
    54  H    0.141191
    55  H    0.168128
    56  H    0.140674
    57  H    0.139873
    58  H    0.141426
    59  H    0.120408
    60  H    0.137808
    61  H    0.142999
    62  H    0.142455
    63  H    0.122816
    64  H    0.147025
    65  H    0.137717
    66  H    0.141144
    67  H    0.136210
    68  H    0.146082
    69  H    0.156385
    70  H    0.146947
    71  H    0.132181
    72  H    0.136296
    73  H    0.131564
    74  H    0.142184
    75  H    0.137782
    76  H    0.129504
 Sum of Mulliken charges =   0.00000

 Dipole moment (field-independent basis, Debye):
    X=              7.3198    Y=              5.3581    Z=              3.6731  Tot=              9.7868
 Quadrupole moment (field-independent basis, Debye-Ang):
   XX=           -251.1371   YY=           -269.2321   ZZ=           -276.9695
   XY=            -19.5886   XZ=              0.1467   YZ=             -2.4687

 Normal termination of Gaussian 09 at Mon Mar  4 15:27:30 2024.
