 Gaussian 09, Revision D.01,
 Gaussian 09:  ES64L-G09RevD.01 24-Apr-2013

 ----------------------------------------------------------------------
 #p sp geom=allcheck scrf(solvent=dichloromethane,smd) wb97xd genecp te
 mperature=313 integral(grid=ultrafine)
 ----------------------------------------------------------------------

 Structure from the checkpoint file:  "ts-cata-v16-released-sp.chk"
 -----
 title
 -----
 Charge =  0 Multiplicity = 1

                         Standard orientation:
 ---------------------------------------------------------------------
 Center     Atomic      Atomic             Coordinates (Angstroms)
 Number     Number       Type             X           Y           Z
 ---------------------------------------------------------------------
      1         46           0       -0.177270   -0.848521    0.729196
      2          6           0        1.545813    0.189080    1.047387
      3          6           0        1.684208    0.633798    2.372603
      4          1           0        1.254482    0.057647    3.191956
      5          6           0        2.318162    1.845210    2.612971
      6          1           0        2.376687    2.252381    3.624616
      7          6           0        2.882013    2.593743    1.563548
      8          6           0        2.884187    2.072186    0.269875
      9          1           0        3.409787    2.569629   -0.543378
     10          6           0        2.248792    0.848331    0.016623
     11          6           0        2.364673    0.041807   -1.183077
     12          6           0        2.704430    0.437773   -2.471440
     13          6           0        2.806468   -0.501673   -3.491952
     14          6           0        2.548390   -1.847257   -3.223681
     15          6           0        2.177584   -2.264905   -1.945165
     16          6           0        2.111636   -1.327206   -0.916214
     17          7           0        1.696403   -1.578988    0.403498
     18         16           0        2.505191   -2.598154    1.450315
     19          8           0        1.734419   -2.576232    2.686542
     20          8           0        2.855481   -3.836193    0.783661
     21          6           0        4.044439   -1.739433    1.853175
     22         17           0        5.112247   -1.549196    0.468417
     23          1           0        4.521632   -2.371059    2.615216
     24          1           0        3.780461   -0.757629    2.267059
     25          9           0        1.851232   -3.530013   -1.768840
     26          9           0        2.603099   -2.725261   -4.210852
     27          9           0        3.118402   -0.127346   -4.722137
     28          9           0        2.909665    1.722308   -2.759822
     29          8           0        3.431280    3.779430    1.906208
     30          6           0        3.997419    4.564816    0.895864
     31          1           0        3.261316    4.812211    0.109789
     32          1           0        4.863741    4.068521    0.423240
     33          1           0        4.338339    5.493635    1.370445
     34          6           0       -3.141334    2.729823   -0.654425
     35          1           0       -3.770935    2.925109    0.230515
     36          1           0       -3.734020    2.105678   -1.341258
     37          6           0       -2.797250    4.051639   -1.353750
     38          1           0       -3.735354    4.562728   -1.627349
     39          6           0       -1.983067    3.756468   -2.617020
     40          1           0       -1.756926    4.695625   -3.149531
     41          1           0       -2.571917    3.130003   -3.308871
     42          6           0       -0.685817    3.042556   -2.230304
     43          1           0       -0.095667    2.815540   -3.133408
     44          6           0        0.130158    3.936711   -1.297345
     45          1           0        0.388948    4.881492   -1.805430
     46          1           0        1.075054    3.438087   -1.033935
     47          6           0       -0.683452    4.222686   -0.034978
     48          1           0       -0.093505    4.848789    0.655082
     49          6           0       -1.021548    2.906792    0.671800
     50          1           0       -0.097216    2.387890    0.971749
     51          1           0       -1.580854    3.131771    1.593933
     52          6           0       -1.854948    1.994643   -0.253918
     53         15           0       -2.112174    0.388515    0.684215
     54          6           0       -2.857016    0.901932    2.302152
     55          1           0       -3.330579    1.886755    2.163139
     56          1           0       -3.678472    0.200241    2.513733
     57          6           0       -1.899975    0.914864    3.492524
     58          1           0       -0.992213    1.491306    3.246872
     59          1           0       -2.390434    1.457112    4.320241
     60          6           0       -1.500702   -0.472448    3.976761
     61          1           0       -2.412189   -1.070669    4.155540
     62          1           0       -0.953962   -0.996561    3.168703
     63          6           0       -0.655369   -0.449373    5.238882
     64          1           0       -0.331511   -1.461159    5.523277
     65          1           0       -1.210227   -0.018029    6.087833
     66          1           0        0.252582    0.160493    5.104609
     67          6           0       -3.446932   -0.699063   -0.071339
     68          6           0       -3.339447   -2.034542    0.699502
     69          1           0       -2.305127   -2.422273    0.626502
     70          1           0       -3.533190   -1.876712    1.773829
     71          6           0       -4.319844   -3.066201    0.138299
     72          1           0       -4.220828   -4.000413    0.714789
     73          6           0       -3.984532   -3.325598   -1.331622
     74          1           0       -4.665988   -4.085126   -1.750131
     75          1           0       -2.961311   -3.727657   -1.420663
     76          6           0       -4.107788   -2.018144   -2.115909
     77          1           0       -3.860643   -2.195246   -3.175543
     78          6           0       -3.135792   -0.977473   -1.551330
     79          1           0       -3.228106   -0.048574   -2.135141
     80          1           0       -2.091650   -1.322361   -1.655554
     81          6           0       -5.537152   -1.482337   -2.000806
     82          1           0       -5.641539   -0.550897   -2.583205
     83          1           0       -6.250857   -2.207492   -2.426623
     84          6           0       -5.866851   -1.223019   -0.528649
     85          1           0       -6.893124   -0.829218   -0.441912
     86          6           0       -4.891644   -0.184634    0.042802
     87          1           0       -5.007582    0.764693   -0.499650
     88          1           0       -5.150535    0.016024    1.094674
     89          6           0       -5.747719   -2.529160    0.259048
     90          1           0       -6.466705   -3.271817   -0.125740
     91          1           0       -6.000597   -2.358197    1.319386
     92          6           0       -1.019144    1.726359   -1.520695
     93          1           0       -1.564833    1.069228   -2.212358
     94          1           0       -0.096306    1.193877   -1.242256
     95          6           0       -1.981629    4.940053   -0.411265
     96          1           0       -1.757599    5.903497   -0.899438
     97          1           0       -2.567159    5.169015    0.495777
 ---------------------------------------------------------------------

 SCF Done:  E(RwB97XD) =  -3484.10636654     A.U. after   24 cycles

 The electronic state is 1-A.
 Alpha  occ. eigenvalues -- -101.70564 -89.23310 -77.21661 -24.84726 -24.84694
 Alpha  occ. eigenvalues --  -24.84355 -24.84076 -19.27963 -19.25573 -19.25497
 Alpha  occ. eigenvalues --  -14.49161 -10.39657 -10.39559 -10.39391 -10.39341
 Alpha  occ. eigenvalues --  -10.37223 -10.35583 -10.34618 -10.34424 -10.32610
 Alpha  occ. eigenvalues --  -10.32096 -10.30559 -10.29610 -10.29452 -10.29229
 Alpha  occ. eigenvalues --  -10.29176 -10.29092 -10.28044 -10.27477 -10.27465
 Alpha  occ. eigenvalues --  -10.27439 -10.27424 -10.27388 -10.27322 -10.27321
 Alpha  occ. eigenvalues --  -10.27219 -10.27129 -10.27109 -10.27053 -10.26881
 Alpha  occ. eigenvalues --  -10.26815 -10.26606 -10.26551 -10.26543 -10.26484
 Alpha  occ. eigenvalues --  -10.26461 -10.26459 -10.26339 -10.26145  -9.59119
 Alpha  occ. eigenvalues --   -8.23450  -7.33800  -7.32885  -7.32850  -6.66203
 Alpha  occ. eigenvalues --   -6.18337  -6.18174  -6.18149  -4.80879  -4.80855
 Alpha  occ. eigenvalues --   -4.80573  -3.53416  -2.22269  -2.21244  -2.19461
 Alpha  occ. eigenvalues --   -1.37380  -1.36454  -1.35523  -1.35046  -1.22500
 Alpha  occ. eigenvalues --   -1.17522  -1.11679  -1.05758  -0.98275  -0.97544
 Alpha  occ. eigenvalues --   -0.97357  -0.96925  -0.96297  -0.90005  -0.89889
 Alpha  occ. eigenvalues --   -0.87845  -0.87042  -0.86442  -0.86359  -0.86321
 Alpha  occ. eigenvalues --   -0.86148  -0.86064  -0.85375  -0.84388  -0.82365
 Alpha  occ. eigenvalues --   -0.82297  -0.79512  -0.76552  -0.76065  -0.75914
 Alpha  occ. eigenvalues --   -0.75686  -0.75516  -0.75381  -0.74421  -0.71646
 Alpha  occ. eigenvalues --   -0.70799  -0.70032  -0.69502  -0.67418  -0.67325
 Alpha  occ. eigenvalues --   -0.67048  -0.66897  -0.66837  -0.66683  -0.66360
 Alpha  occ. eigenvalues --   -0.66143  -0.65971  -0.63776  -0.63168  -0.62661
 Alpha  occ. eigenvalues --   -0.62006  -0.61656  -0.60629  -0.60335  -0.59820
 Alpha  occ. eigenvalues --   -0.59459  -0.58891  -0.58522  -0.57271  -0.56871
 Alpha  occ. eigenvalues --   -0.56279  -0.56147  -0.55679  -0.55356  -0.55095
 Alpha  occ. eigenvalues --   -0.54149  -0.54022  -0.53777  -0.53555  -0.53500
 Alpha  occ. eigenvalues --   -0.53356  -0.53081  -0.52896  -0.52760  -0.52592
 Alpha  occ. eigenvalues --   -0.52447  -0.52055  -0.51576  -0.51001  -0.50970
 Alpha  occ. eigenvalues --   -0.50401  -0.50009  -0.49547  -0.49456  -0.49152
 Alpha  occ. eigenvalues --   -0.48901  -0.48827  -0.48690  -0.48598  -0.48394
 Alpha  occ. eigenvalues --   -0.47535  -0.47396  -0.47204  -0.46926  -0.46755
 Alpha  occ. eigenvalues --   -0.46230  -0.45871  -0.45093  -0.44682  -0.44390
 Alpha  occ. eigenvalues --   -0.43907  -0.43568  -0.43069  -0.42641  -0.42473
 Alpha  occ. eigenvalues --   -0.42004  -0.41281  -0.41177  -0.41075  -0.40867
 Alpha  occ. eigenvalues --   -0.40756  -0.40640  -0.40428  -0.40272  -0.40146
 Alpha  occ. eigenvalues --   -0.40086  -0.40006  -0.39923  -0.39856  -0.39801
 Alpha  occ. eigenvalues --   -0.39522  -0.39174  -0.38658  -0.37543  -0.36531
 Alpha  occ. eigenvalues --   -0.35858  -0.35260  -0.35117  -0.34983  -0.34739
 Alpha  occ. eigenvalues --   -0.34191  -0.33261  -0.32261  -0.32154  -0.31570
 Alpha  occ. eigenvalues --   -0.31419  -0.30919  -0.28123  -0.24464
 Alpha virt. eigenvalues --    0.01307   0.02770   0.04374   0.06868   0.07231
 Alpha virt. eigenvalues --    0.08051   0.08693   0.09200   0.09603   0.09938
 Alpha virt. eigenvalues --    0.10883   0.11984   0.12525   0.12619   0.12638

 Mulliken charges:
               1
     1  Pd  -0.158699
     2  C    0.125317
     3  C   -0.317033
     4  H    0.224505
     5  C   -0.228954
     6  H    0.141565
     7  C    0.422672
     8  C   -0.526580
     9  H    0.187241
    10  C    0.057282
    11  C    0.033284
    12  C    0.267030
    13  C    0.176605
    14  C    0.186811
    15  C    0.205135
    16  C   -0.076258
    17  N   -0.258700
    18  S    0.829889
    19  O   -0.493758
    20  O   -0.481630
    21  C   -0.168176
    22  Cl  -0.104615
    23  H    0.216159
    24  H    0.197025
    25  F   -0.194629
    26  F   -0.196004
    27  F   -0.197275
    28  F   -0.219467
    29  O   -0.304923
    30  C   -0.227941
    31  H    0.136320
    32  H    0.138956
    33  H    0.158912
    34  C   -0.477344
    35  H    0.133599
    36  H    0.105569
    37  C    0.146890
    38  H    0.081701
    39  C   -0.305408
    40  H    0.110420
    41  H    0.100090
    42  C    0.174193
    43  H    0.082927
    44  C   -0.355344
    45  H    0.107014
    46  H    0.089522
    47  C    0.163174
    48  H    0.083828
    49  C   -0.508921
    50  H    0.087533
    51  H    0.133533
    52  C    0.507842
    53  P    0.205152
    54  C   -0.368965
    55  H    0.158879
    56  H    0.151270
    57  C   -0.160250
    58  H    0.133020
    59  H    0.112226
    60  C   -0.258215
    61  H    0.109056
    62  H    0.136945
    63  C   -0.388717
    64  H    0.137920
    65  H    0.127123
    66  H    0.119676
    67  C    0.426510
    68  C   -0.530903
    69  H    0.163419
    70  H    0.137349
    71  C    0.170202
    72  H    0.086986
    73  C   -0.354872
    74  H    0.113280
    75  H    0.113762
    76  C    0.186083
    77  H    0.083082
    78  C   -0.567776
    79  H    0.115430
    80  H    0.170919
    81  C   -0.338126
    82  H    0.102784
    83  H    0.112393
    84  C    0.151229
    85  H    0.083336
    86  C   -0.442588
    87  H    0.136712
    88  H    0.125372
    89  C   -0.333232
    90  H    0.113213
    91  H    0.101856
    92  C   -0.464270
    93  H    0.137617
    94  H    0.072811
    95  C   -0.309704
    96  H    0.110222
    97  H    0.100902
 Sum of Mulliken charges =   0.00000

 Dipole moment (field-independent basis, Debye):
    X=             -6.2553    Y=              7.5971    Z=              1.9282  Tot=             10.0281
 Quadrupole moment (field-independent basis, Debye-Ang):
   XX=           -311.5156   YY=           -344.3060   ZZ=           -338.8493
   XY=             18.9149   XZ=              7.2698   YZ=             -0.5087

 Normal termination of Gaussian 09 at Wed Nov 29 12:21:16 2023.
