 Gaussian 09, Revision D.01,
 Gaussian 09:  ES64L-G09RevD.01 24-Apr-2013

 ----------------------------------------------------------------------
 #p sp geom=allcheck scrf(solvent=dichloromethane,smd) wb97xd genecp te
 mperature=313 integral(grid=ultrafine)
 ----------------------------------------------------------------------

 Structure from the checkpoint file:  "ts_pmes3-v3-released-v1-sp.chk"
 -------------------
 Title Card Required
 -------------------
 Charge =  0 Multiplicity = 1

                         Standard orientation:
 ---------------------------------------------------------------------
 Center     Atomic      Atomic             Coordinates (Angstroms)
 Number     Number       Type             X           Y           Z
 ---------------------------------------------------------------------
      1         46           0       -0.083102   -0.404009   -0.846121
      2          6           0       -1.453199    0.986558   -0.230613
      3          6           0       -1.105992    2.305665   -0.561609
      4          1           0       -0.546086    2.520485   -1.470210
      5          6           0       -1.422342    3.327937    0.320494
      6          1           0       -1.089549    4.348949    0.125857
      7          6           0       -2.142347    3.073093    1.500989
      8          6           0       -2.630921    1.790427    1.746947
      9          1           0       -3.286393    1.582559    2.590572
     10          6           0       -2.332807    0.752618    0.849827
     11          6           0       -2.978276   -0.545262    0.789598
     12          6           0       -3.694533   -1.211995    1.778384
     13          6           0       -4.282928   -2.443850    1.513596
     14          6           0       -4.140784   -3.025685    0.252714
     15          6           0       -3.407412   -2.388619   -0.747796
     16          6           0       -2.857692   -1.132825   -0.493958
     17          7           0       -2.056760   -0.394047   -1.380411
     18         16           0       -2.620017    0.188279   -2.841158
     19          8           0       -1.500208    0.905251   -3.437059
     20          8           0       -3.335560   -0.847435   -3.558849
     21          6           0       -3.811899    1.478763   -2.411490
     22         17           0       -5.243677    0.859730   -1.598876
     23          1           0       -4.088316    1.926899   -3.375833
     24          1           0       -3.298297    2.209315   -1.772951
     25          9           0       -3.221761   -3.022114   -1.889132
     26          9           0       -4.662620   -4.219875    0.027652
     27          9           0       -4.954662   -3.083680    2.457633
     28          9           0       -3.811300   -0.702300    3.003074
     29          8           0       -2.350489    4.135442    2.310547
     30          6           0       -3.090774    3.942799    3.481081
     31          1           0       -2.623744    3.191676    4.143481
     32          1           0       -4.127016    3.624972    3.267088
     33          1           0       -3.118019    4.908500    4.001872
     34         15           0        2.016937   -0.054081    0.081389
     35          6           0        2.398390   -0.881070    1.701908
     36          6           0        1.371638   -1.562680    2.405571
     37          6           0        3.720238   -0.943714    2.209058
     38          6           0        1.704795   -2.333730    3.524147
     39          6           0        3.994097   -1.724920    3.333736
     40          6           0        3.008635   -2.451685    3.997472
     41          1           0        0.899259   -2.852970    4.050623
     42          1           0        5.021191   -1.750271    3.709430
     43          6           0        2.130256    1.776752    0.140127
     44          6           0        2.047275    2.454190   -1.106745
     45          6           0        2.074544    2.527568    1.338449
     46          6           0        2.055092    3.851250   -1.119712
     47          6           0        2.065609    3.922893    1.259245
     48          6           0        2.085377    4.611004    0.047212
     49          1           0        2.008964    4.359141   -2.087484
     50          1           0        2.021633    4.491325    2.192649
     51          6           0        3.319730   -0.778423   -1.025657
     52          6           0        4.486934   -0.151890   -1.522775
     53          6           0        3.054763   -2.125422   -1.405260
     54          6           0        5.335214   -0.874660   -2.374549
     55          6           0        3.941166   -2.795006   -2.245703
     56          6           0        5.091380   -2.188447   -2.752967
     57          1           0        6.233055   -0.373230   -2.748671
     58          1           0        3.717906   -3.830325   -2.518787
     59          6           0        1.877074    1.751930   -2.422307
     60          1           0        0.964565    1.121552   -2.415106
     61          1           0        1.769818    2.481159   -3.236050
     62          1           0        2.701850    1.074518   -2.676502
     63          6           0       -0.086469   -1.479631    2.070511
     64          1           0       -0.312482   -1.861097    1.059330
     65          1           0       -0.678108   -2.058445    2.792298
     66          1           0       -0.452335   -0.443500    2.090335
     67          6           0        1.841971   -2.886616   -0.949932
     68          1           0        0.903755   -2.431957   -1.333249
     69          1           0        1.870290   -3.916913   -1.329076
     70          1           0        1.756191   -2.930172    0.145389
     71          6           0        4.939056    1.257243   -1.240329
     72          1           0        4.806591    1.888088   -2.133777
     73          1           0        4.404393    1.748445   -0.426357
     74          1           0        6.012827    1.260551   -1.001388
     75          6           0        6.012705   -2.930445   -3.674253
     76          1           0        6.314900   -3.897186   -3.242528
     77          1           0        5.517466   -3.147452   -4.634492
     78          1           0        6.922321   -2.352491   -3.888673
     79          6           0        4.862877   -0.158303    1.642781
     80          1           0        5.306974   -0.658792    0.770040
     81          1           0        4.548349    0.842833    1.323716
     82          1           0        5.651122   -0.038846    2.398629
     83          6           0        3.338265   -3.323006    5.171762
     84          1           0        3.619101   -4.335530    4.836666
     85          1           0        4.186731   -2.923201    5.745779
     86          1           0        2.479657   -3.429504    5.850015
     87          6           0        1.948033    1.924433    2.709704
     88          1           0        1.090890    1.238842    2.769389
     89          1           0        2.833904    1.352349    3.015437
     90          1           0        1.787892    2.719729    3.449948
     91          6           0        2.111043    6.109988    0.008395
     92          1           0        1.822141    6.493460   -0.980395
     93          1           0        1.430628    6.542206    0.757661
     94          1           0        3.121160    6.492740    0.229895
 ---------------------------------------------------------------------

 SCF Done:  E(RwB97XD) =  -3594.72404676     A.U. after   24 cycles

 The electronic state is 1-A.
 Alpha  occ. eigenvalues -- -101.70540 -89.23299 -77.24124 -24.84710 -24.84690
 Alpha  occ. eigenvalues --  -24.84345 -24.84059 -19.27888 -19.25537 -19.25468
 Alpha  occ. eigenvalues --  -14.49177 -10.39630 -10.39535 -10.39381 -10.39308
 Alpha  occ. eigenvalues --  -10.37201 -10.35469 -10.34503 -10.34307 -10.32550
 Alpha  occ. eigenvalues --  -10.32085 -10.30598 -10.30407 -10.30335 -10.30284
 Alpha  occ. eigenvalues --  -10.30258 -10.30141 -10.30092 -10.30042 -10.29988
 Alpha  occ. eigenvalues --  -10.29867 -10.29757 -10.29554 -10.29344 -10.29090
 Alpha  occ. eigenvalues --  -10.28983 -10.28822 -10.27756 -10.27725 -10.27721
 Alpha  occ. eigenvalues --  -10.27720 -10.27687 -10.27585 -10.27564 -10.27511
 Alpha  occ. eigenvalues --  -10.27427 -10.27393 -10.27041 -10.27029 -10.26985
 Alpha  occ. eigenvalues --  -10.26963 -10.26801  -9.59095  -8.23439  -7.33776
 Alpha  occ. eigenvalues --   -7.32860  -7.32826  -6.68505  -6.18324  -6.18164
 Alpha  occ. eigenvalues --   -6.18137  -4.83213  -4.83191  -4.82857  -3.53409
 Alpha  occ. eigenvalues --   -2.22219  -2.21340  -2.19514  -1.37366  -1.36454
 Alpha  occ. eigenvalues --   -1.35526  -1.35038  -1.22485  -1.17433  -1.11651
 Alpha  occ. eigenvalues --   -1.05732  -0.98243  -0.97530  -0.97149  -0.96374
 Alpha  occ. eigenvalues --   -0.96325  -0.96111  -0.89892  -0.89536  -0.88689
 Alpha  occ. eigenvalues --   -0.88350  -0.88190  -0.87759  -0.87531  -0.86991
 Alpha  occ. eigenvalues --   -0.85259  -0.84302  -0.82272  -0.81043  -0.79680
 Alpha  occ. eigenvalues --   -0.79421  -0.79309  -0.79285  -0.77729  -0.77527
 Alpha  occ. eigenvalues --   -0.77164  -0.76734  -0.76598  -0.76498  -0.75635
 Alpha  occ. eigenvalues --   -0.71603  -0.71080  -0.70665  -0.69463  -0.66847
 Alpha  occ. eigenvalues --   -0.66744  -0.66638  -0.66544  -0.66517  -0.66103
 Alpha  occ. eigenvalues --   -0.66022  -0.65831  -0.63758  -0.63643  -0.63131
 Alpha  occ. eigenvalues --   -0.61987  -0.61633  -0.60316  -0.59766  -0.58888
 Alpha  occ. eigenvalues --   -0.58572  -0.58297  -0.57757  -0.57588  -0.57232
 Alpha  occ. eigenvalues --   -0.56806  -0.56634  -0.56276  -0.56151  -0.56132
 Alpha  occ. eigenvalues --   -0.55573  -0.55272  -0.54181  -0.53855  -0.53618
 Alpha  occ. eigenvalues --   -0.53352  -0.52837  -0.52422  -0.52297  -0.51792
 Alpha  occ. eigenvalues --   -0.51662  -0.51340  -0.51259  -0.50903  -0.50473
 Alpha  occ. eigenvalues --   -0.50300  -0.50097  -0.49938  -0.49622  -0.49507
 Alpha  occ. eigenvalues --   -0.49418  -0.49025  -0.48706  -0.48450  -0.48403
 Alpha  occ. eigenvalues --   -0.48168  -0.48075  -0.47807  -0.47758  -0.47490
 Alpha  occ. eigenvalues --   -0.47336  -0.46888  -0.46854  -0.46584  -0.46432
 Alpha  occ. eigenvalues --   -0.46127  -0.45797  -0.44750  -0.44620  -0.44390
 Alpha  occ. eigenvalues --   -0.44173  -0.43958  -0.43854  -0.43317  -0.42889
 Alpha  occ. eigenvalues --   -0.42607  -0.42386  -0.42130  -0.41979  -0.41647
 Alpha  occ. eigenvalues --   -0.41504  -0.41438  -0.41193  -0.41047  -0.40692
 Alpha  occ. eigenvalues --   -0.39904  -0.39788  -0.39630  -0.38633  -0.38037
 Alpha  occ. eigenvalues --   -0.36337  -0.34957  -0.33197  -0.33104  -0.32539
 Alpha  occ. eigenvalues --   -0.32145  -0.31912  -0.31588  -0.31477  -0.31108
 Alpha  occ. eigenvalues --   -0.30695  -0.30603  -0.29560  -0.27782  -0.24190
 Alpha virt. eigenvalues --    0.01297   0.02375   0.03013   0.04100   0.04489
 Alpha virt. eigenvalues --    0.05134   0.05690   0.06224   0.06407   0.07279
 Alpha virt. eigenvalues --    0.07591   0.08250   0.09124   0.09393   0.10473

 Mulliken charges:
               1
     1  Pd  -0.201191
     2  C    0.038646
     3  C   -0.183821
     4  H    0.223367
     5  C   -0.278981
     6  H    0.155001
     7  C    0.398766
     8  C   -0.443123
     9  H    0.177758
    10  C    0.049399
    11  C   -0.068227
    12  C    0.292763
    13  C    0.169702
    14  C    0.188874
    15  C    0.206111
    16  C   -0.035403
    17  N   -0.260680
    18  S    0.839786
    19  O   -0.496542
    20  O   -0.483113
    21  C   -0.172534
    22  Cl  -0.104813
    23  H    0.215611
    24  H    0.198031
    25  F   -0.194515
    26  F   -0.195984
    27  F   -0.197638
    28  F   -0.217210
    29  O   -0.305366
    30  C   -0.227500
    31  H    0.136268
    32  H    0.135509
    33  H    0.157965
    34  P    0.325811
    35  C   -0.282160
    36  C    0.293881
    37  C    0.154257
    38  C   -0.433257
    39  C   -0.420017
    40  C    0.232099
    41  H    0.138060
    42  H    0.136246
    43  C   -0.132453
    44  C    0.104062
    45  C    0.195188
    46  C   -0.374010
    47  C   -0.443703
    48  C    0.207272
    49  H    0.131894
    50  H    0.129571
    51  C   -0.225857
    52  C    0.175570
    53  C    0.206249
    54  C   -0.398108
    55  C   -0.421901
    56  C    0.224043
    57  H    0.137079
    58  H    0.136502
    59  C   -0.398364
    60  H    0.176242
    61  H    0.144761
    62  H    0.170250
    63  C   -0.299894
    64  H    0.133258
    65  H    0.145653
    66  H    0.140589
    67  C   -0.389114
    68  H    0.155691
    69  H    0.148877
    70  H    0.170307
    71  C   -0.388132
    72  H    0.162601
    73  H    0.158674
    74  H    0.168738
    75  C   -0.406606
    76  H    0.146314
    77  H    0.148875
    78  H    0.142468
    79  C   -0.381654
    80  H    0.164245
    81  H    0.138964
    82  H    0.150254
    83  C   -0.406032
    84  H    0.151289
    85  H    0.144970
    86  H    0.145353
    87  C   -0.309874
    88  H    0.136119
    89  H    0.146331
    90  H    0.145922
    91  C   -0.408430
    92  H    0.142806
    93  H    0.145420
    94  H    0.149895
 Sum of Mulliken charges =   0.00000

 Dipole moment (field-independent basis, Debye):
    X=              7.9688    Y=              3.9514    Z=              5.4171  Tot=             10.4144
 Quadrupole moment (field-independent basis, Debye-Ang):
   XX=           -334.8219   YY=           -326.2827   ZZ=           -339.9449
   XY=            -24.3932   XZ=            -14.3320   YZ=             -5.1699

 Normal termination of Gaussian 09 at Mon Feb 26 15:45:48 2024.
