 Gaussian 09, Revision D.01,
 Gaussian 09:  ES64L-G09RevD.01 24-Apr-2013

 ----------------------------------------------------------------------
 #p sp geom=allcheck scrf(solvent=dichloromethane,smd) wb97xd genecp te
 mperature=313 integral(grid=ultrafine)
 ----------------------------------------------------------------------

 Structure from the checkpoint file:  "ts-tbu2cy-v5-released-sp.chk"
 -----
 title
 -----
 Charge =  0 Multiplicity = 1

                         Standard orientation:
 ---------------------------------------------------------------------
 Center     Atomic      Atomic             Coordinates (Angstroms)
 Number     Number       Type             X           Y           Z
 ---------------------------------------------------------------------
      1         46           0        0.506183   -0.621015   -0.697311
      2          6           0       -0.551325    1.069048   -0.267941
      3          6           0        0.032485    2.245452   -0.768511
      4          1           0        0.625668    2.219772   -1.682877
      5          6           0       -0.107510    3.425645   -0.051137
      6          1           0        0.387952    4.340895   -0.381824
      7          6           0       -0.866832    3.473951    1.132370
      8          6           0       -1.564159    2.340637    1.550299
      9          1           0       -2.243816    2.371856    2.399910
     10          6           0       -1.449318    1.149082    0.819162
     11          6           0       -2.315070   -0.011466    0.920656
     12          6           0       -3.132281   -0.402672    1.975890
     13          6           0       -3.948136   -1.522922    1.856502
     14          6           0       -3.935325   -2.269098    0.676916
     15          6           0       -3.109385   -1.909316   -0.387905
     16          6           0       -2.324362   -0.762379   -0.281530
     17          7           0       -1.423551   -0.289919   -1.251776
     18         16           0       -1.894731    0.210263   -2.774877
     19          8           0       -0.669421    0.628072   -3.442538
     20          8           0       -2.803410   -0.751012   -3.366329
     21          6           0       -2.819015    1.741585   -2.507944
     22         17           0       -4.318897    1.501603   -1.620733
     23          1           0       -3.033509    2.111964   -3.519954
     24          1           0       -2.164810    2.437444   -1.966982
     25          9           0       -3.069273   -2.696691   -1.444407
     26          9           0       -4.679153   -3.358936    0.592454
     27          9           0       -4.719160   -1.902284    2.862694
     28          9           0       -3.142162    0.273564    3.122332
     29          8           0       -0.898273    4.665026    1.768842
     30          6           0       -1.668481    4.777804    2.931180
     31          1           0       -1.337338    4.070968    3.713174
     32          1           0       -2.741481    4.604977    2.733358
     33          1           0       -1.537373    5.803118    3.299680
     34         15           0        2.506313   -0.891192    0.410435
     35          6           0        3.932158   -0.039309   -0.451946
     36          6           0        2.367850   -0.292099    2.201731
     37          6           0        2.969853   -2.727114    0.303038
     38          6           0        3.451539    1.183562   -1.242379
     39          6           0        5.204588    0.284525    0.336436
     40          1           0        4.205751   -0.801236   -1.205838
     41          6           0        3.499558   -0.735704    3.127956
     42          6           0        2.302186    1.238442    2.133905
     43          6           0        1.030188   -0.779710    2.772624
     44          6           0        2.039192   -3.548688    1.195709
     45          6           0        2.690888   -3.118580   -1.155022
     46          6           0        4.427394   -3.045163    0.634950
     47          6           0        4.551321    1.735373   -2.142703
     48          1           0        2.569552    0.903047   -1.840477
     49          1           0        3.112192    1.968060   -0.544858
     50          6           0        6.296769    0.822171   -0.585591
     51          1           0        5.573041   -0.599467    0.874896
     52          1           0        4.984916    1.047345    1.100793
     53          1           0        4.487685   -0.403485    2.785743
     54          1           0        3.333668   -0.302007    4.128356
     55          1           0        3.525000   -1.827854    3.251150
     56          1           0        2.086438    1.631191    3.140901
     57          1           0        3.244996    1.690826    1.798907
     58          1           0        1.498347    1.578542    1.465518
     59          1           0        0.192010   -0.512122    2.113479
     60          1           0        0.863309   -0.293535    3.747993
     61          1           0        1.006830   -1.863895    2.935637
     62          1           0        2.263152   -3.419300    2.263720
     63          1           0        0.982489   -3.288794    1.025301
     64          1           0        2.164217   -4.618611    0.961131
     65          1           0        2.953908   -4.178409   -1.308696
     66          1           0        1.624059   -2.997015   -1.408761
     67          1           0        3.274443   -2.525383   -1.875488
     68          1           0        4.587928   -4.133233    0.552895
     69          1           0        5.124775   -2.564021   -0.065884
     70          1           0        4.703050   -2.747750    1.655559
     71          6           0        5.822767    2.044171   -1.362064
     72          1           0        4.188665    2.634407   -2.666460
     73          1           0        4.779073    0.991803   -2.927940
     74          1           0        7.196557    1.061718    0.003939
     75          1           0        6.593470    0.029582   -1.296675
     76          1           0        6.615075    2.401882   -2.039124
     77          1           0        5.624169    2.868310   -0.652891
 ---------------------------------------------------------------------

 SCF Done:  E(RwB97XD) =  -3096.93728108     A.U. after   24 cycles

 The electronic state is 1-A.
 Alpha  occ. eigenvalues -- -101.70576 -89.23337 -77.21952 -24.84718 -24.84706
 Alpha  occ. eigenvalues --  -24.84367 -24.84072 -19.27970 -19.25605 -19.25510
 Alpha  occ. eigenvalues --  -14.49165 -10.39659 -10.39555 -10.39391 -10.39367
 Alpha  occ. eigenvalues --  -10.37240 -10.35583 -10.34651 -10.34431 -10.32610
 Alpha  occ. eigenvalues --  -10.32150 -10.30671 -10.30428 -10.30426 -10.29248
 Alpha  occ. eigenvalues --  -10.29195 -10.29076 -10.28847 -10.27318 -10.27158
 Alpha  occ. eigenvalues --  -10.27030 -10.26977 -10.26967 -10.26923 -10.26839
 Alpha  occ. eigenvalues --  -10.26814 -10.26804 -10.26672 -10.26450  -9.59131
 Alpha  occ. eigenvalues --   -8.23477  -7.33813  -7.32897  -7.32862  -6.66450
 Alpha  occ. eigenvalues --   -6.18363  -6.18201  -6.18175  -4.81120  -4.81110
 Alpha  occ. eigenvalues --   -4.80817  -3.53401  -2.22251  -2.21224  -2.19433
 Alpha  occ. eigenvalues --   -1.37392  -1.36479  -1.35555  -1.35065  -1.22536
 Alpha  occ. eigenvalues --   -1.17539  -1.11716  -1.05769  -0.98271  -0.97558
 Alpha  occ. eigenvalues --   -0.96309  -0.93560  -0.91798  -0.90404  -0.89952
 Alpha  occ. eigenvalues --   -0.87028  -0.85382  -0.84398  -0.84068  -0.83473
 Alpha  occ. eigenvalues --   -0.82319  -0.79507  -0.78339  -0.78135  -0.77590
 Alpha  occ. eigenvalues --   -0.77193  -0.76547  -0.75693  -0.73808  -0.71652
 Alpha  occ. eigenvalues --   -0.70781  -0.69673  -0.69465  -0.67874  -0.66890
 Alpha  occ. eigenvalues --   -0.66686  -0.66147  -0.64181  -0.63791  -0.63776
 Alpha  occ. eigenvalues --   -0.63166  -0.62036  -0.61678  -0.60634  -0.60244
 Alpha  occ. eigenvalues --   -0.59767  -0.58928  -0.58532  -0.57268  -0.56885
 Alpha  occ. eigenvalues --   -0.56249  -0.56152  -0.56088  -0.55657  -0.55326
 Alpha  occ. eigenvalues --   -0.55083  -0.54170  -0.53550  -0.53416  -0.53105
 Alpha  occ. eigenvalues --   -0.52645  -0.52643  -0.52420  -0.52150  -0.51765
 Alpha  occ. eigenvalues --   -0.51659  -0.51038  -0.50784  -0.50488  -0.49893
 Alpha  occ. eigenvalues --   -0.49284  -0.48789  -0.48490  -0.47803  -0.47479
 Alpha  occ. eigenvalues --   -0.47127  -0.46383  -0.46132  -0.45882  -0.45483
 Alpha  occ. eigenvalues --   -0.45342  -0.44687  -0.44402  -0.44342  -0.43957
 Alpha  occ. eigenvalues --   -0.43847  -0.43054  -0.42683  -0.42602  -0.42505
 Alpha  occ. eigenvalues --   -0.42134  -0.41652  -0.41529  -0.41214  -0.41000
 Alpha  occ. eigenvalues --   -0.40784  -0.40443  -0.40327  -0.39909  -0.38690
 Alpha  occ. eigenvalues --   -0.38560  -0.37686  -0.36534  -0.36438  -0.36023
 Alpha  occ. eigenvalues --   -0.35462  -0.34532  -0.32313  -0.32147  -0.31927
 Alpha  occ. eigenvalues --   -0.31511  -0.31014  -0.28280  -0.24558
 Alpha virt. eigenvalues --    0.01273   0.02706   0.04325   0.07041   0.07313
 Alpha virt. eigenvalues --    0.07896   0.08895   0.09094   0.09646   0.10747
 Alpha virt. eigenvalues --    0.11370   0.11959   0.12830   0.13065   0.13680

 Mulliken charges:
               1
     1  Pd  -0.106281
     2  C    0.107776
     3  C   -0.298134
     4  H    0.201802
     5  C   -0.209713
     6  H    0.148924
     7  C    0.376957
     8  C   -0.426715
     9  H    0.179273
    10  C   -0.014631
    11  C   -0.036863
    12  C    0.297437
    13  C    0.165769
    14  C    0.190204
    15  C    0.199519
    16  C   -0.043341
    17  N   -0.251419
    18  S    0.831601
    19  O   -0.494585
    20  O   -0.480839
    21  C   -0.171024
    22  Cl  -0.104490
    23  H    0.215804
    24  H    0.195087
    25  F   -0.193255
    26  F   -0.195628
    27  F   -0.197362
    28  F   -0.215528
    29  O   -0.303502
    30  C   -0.227379
    31  H    0.136905
    32  H    0.136208
    33  H    0.158369
    34  P    0.307507
    35  C   -0.125319
    36  C    0.199553
    37  C    0.118890
    38  C   -0.279083
    39  C   -0.297205
    40  H    0.087730
    41  C   -0.448692
    42  C   -0.455333
    43  C   -0.444744
    44  C   -0.488825
    45  C   -0.470543
    46  C   -0.452371
    47  C   -0.188322
    48  H    0.131366
    49  H    0.130107
    50  C   -0.186063
    51  H    0.141995
    52  H    0.105356
    53  H    0.156285
    54  H    0.137931
    55  H    0.137186
    56  H    0.138507
    57  H    0.139662
    58  H    0.106824
    59  H    0.125359
    60  H    0.136786
    61  H    0.149662
    62  H    0.142039
    63  H    0.168121
    64  H    0.143444
    65  H    0.145847
    66  H    0.157720
    67  H    0.155667
    68  H    0.142978
    69  H    0.148613
    70  H    0.150143
    71  C   -0.184596
    72  H    0.115668
    73  H    0.102404
    74  H    0.116504
    75  H    0.100441
    76  H    0.116116
    77  H    0.093744
 Sum of Mulliken charges =   0.00000

 Dipole moment (field-independent basis, Debye):
    X=              8.5293    Y=              2.8791    Z=              5.0600  Tot=             10.3268
 Quadrupole moment (field-independent basis, Debye-Ang):
   XX=           -270.4416   YY=           -263.2752   ZZ=           -282.6037
   XY=            -24.2012   XZ=             -4.4439   YZ=             -2.5995

 Normal termination of Gaussian 09 at Sun Mar  3 14:55:30 2024.
