                         Program Version 4.2.0 -  RELEASE  -
|  1> ! PBE0 def2-SVP RIJDX D3BJ opt freq
|  2> %pal nprocs 10 end
|  3> %maxcore 3036
|  4>
|  5> %basis
|  6>   newgto Rh "def2-TZVP" end
|  7> end
|  8>
|  9> *xyzfile 0 1 dppeRhHCO.xyz
| 10>
| 11>                          ****END OF INPUT****
 Total Charge           Charge          ....    0
 Multiplicity           Mult            ....    1
 Number of Electrons    NEL             ....  242
Dispersion correction           -0.092044848
FINAL SINGLE POINT ENERGY     -1910.012610331110
Dispersion correction            ... done
Dispersion correction           -0.090883646
FINAL SINGLE POINT ENERGY     -1910.021376092385
Dispersion correction            ... done
Dispersion correction           -0.090096633
FINAL SINGLE POINT ENERGY     -1910.024134557432
Dispersion correction            ... done
FINAL SINGLE POINT ENERGY     -1910.025690446343
FINAL SINGLE POINT ENERGY     -1910.026420531616
FINAL SINGLE POINT ENERGY     -1910.026821906024
FINAL SINGLE POINT ENERGY     -1910.027105555944
FINAL SINGLE POINT ENERGY     -1910.027336699140
FINAL SINGLE POINT ENERGY     -1910.027488811912
FINAL SINGLE POINT ENERGY     -1910.027553961673
FINAL SINGLE POINT ENERGY     -1910.027587849069
FINAL SINGLE POINT ENERGY     -1910.027613592340
FINAL SINGLE POINT ENERGY     -1910.027628637708
FINAL SINGLE POINT ENERGY     -1910.027637104483
Dispersion correction           -0.089234435
FINAL SINGLE POINT ENERGY     -1910.027643940958
Dispersion correction            ... done
Dispersion correction           -0.089232679
FINAL SINGLE POINT ENERGY     -1910.027647208589
Dispersion correction            ... done
                    ***********************HURRAY********************

CARTESIAN COORDINATES (ANGSTROEM)
---------------------------------
  H      0.658861    1.612523   -0.579202
  Rh     1.341893    0.252537   -0.049001
  P      2.848568    1.593398    1.066905
  C      3.781243    2.899082    0.196861
  C      3.140412    3.577371   -0.847660
  C      3.799175    4.597190   -1.530204
  C      5.105482    4.942359   -1.185226
  C      5.754301    4.263412   -0.154934
  C      5.096106    3.246227    0.534534
  C      2.118125    2.428750    2.523097
  C      0.838391    2.038988    2.933836
  C      0.266637    2.604737    4.072903
  C      0.964585    3.568099    4.799053
  C      2.235646    3.969561    4.384910
  C      2.812180    3.402459    3.251242
  C      4.164640    0.526875    1.838372
  C      3.537039   -0.789551    2.276949
  P      2.558248   -1.480520    0.853781
  C      1.822939   -3.020625    1.503241
  C      2.060594   -3.510777    2.792051
  C      1.460871   -4.696746    3.216721
  C      0.625288   -5.405857    2.357389
  C      0.382025   -4.921905    1.071103
  C      0.970466   -3.734285    0.649184
  C      3.906864   -2.096668   -0.228588
  C      4.624921   -3.264890    0.054072
  C      5.676937   -3.655520   -0.770592
  C      6.020677   -2.882867   -1.880918
  C      5.305315   -1.722535   -2.171061
  C      4.246921   -1.332851   -1.351414
  C     -0.089420   -0.623874   -0.845536
  O     -1.000612   -1.152522   -1.304292
  H      2.124912    3.281213   -1.123274
  H      3.290533    5.119693   -2.343693
  H      5.622740    5.739131   -1.725109
  H      6.779991    4.525413    0.114668
  H      5.620038    2.722407    1.337342
  H      0.300959    1.295831    2.333682
  H     -0.732797    2.296536    4.387656
  H      0.514628    4.015233    5.688576
  H      2.778926    4.733482    4.946503
  H      3.801535    3.731765    2.923630
  H      4.649210    1.041186    2.682733
  H      4.926665    0.347207    1.061702
  H      2.828670   -0.623638    3.106065
  H      4.305650   -1.503201    2.614477
  H      2.715973   -2.970877    3.478492
  H      1.651965   -5.067610    4.226424
  H      0.158970   -6.335777    2.690482
  H     -0.277953   -5.469492    0.394065
  H      0.763342   -3.350337   -0.352943
  H      4.351453   -3.878315    0.917378
  H      6.230094   -4.571652   -0.549819
  H      6.845889   -3.192190   -2.527209
  H      5.564420   -1.120561   -3.045195
  H      3.659139   -0.435202   -1.575890

 Multiplicity           Mult            ....    1
 Number of Electrons    NEL             ....  242
 Basis Dimension        Dim             ....  593

ORBITAL ENERGIES
----------------

  NO   OCC          E(Eh)            E(eV)
   0   2.0000     -77.235040     -2101.6723
   1   2.0000     -77.231629     -2101.5795
   2   2.0000     -19.255778      -523.9764
   3   2.0000     -10.318921      -280.7921
   4   2.0000     -10.256692      -279.0988
   5   2.0000     -10.256462      -279.0925
   6   2.0000     -10.255904      -279.0773
   7   2.0000     -10.255204      -279.0583
   8   2.0000     -10.254622      -279.0424
   9   2.0000     -10.252595      -278.9873
  10   2.0000     -10.251453      -278.9562
  11   2.0000     -10.250138      -278.9204
  12   2.0000     -10.250052      -278.9181
  13   2.0000     -10.249657      -278.9073
  14   2.0000     -10.249483      -278.9026
  15   2.0000     -10.248571      -278.8778
  16   2.0000     -10.248221      -278.8683
  17   2.0000     -10.247796      -278.8567
  18   2.0000     -10.247664      -278.8531
  19   2.0000     -10.247247      -278.8418
  20   2.0000     -10.246882      -278.8318
  21   2.0000     -10.246596      -278.8241
  22   2.0000     -10.246163      -278.8123
  23   2.0000     -10.246138      -278.8116
  24   2.0000     -10.246022      -278.8084
  25   2.0000     -10.245949      -278.8064
  26   2.0000     -10.245294      -278.7886
  27   2.0000     -10.244345      -278.7628
  28   2.0000     -10.243867      -278.7498
  29   2.0000     -10.243151      -278.7303
  30   2.0000      -6.640087      -180.6860
  31   2.0000      -6.636348      -180.5842
  32   2.0000      -4.780161      -130.0748
  33   2.0000      -4.779949      -130.0690
  34   2.0000      -4.777946      -130.0145
  35   2.0000      -4.776488      -129.9749
  36   2.0000      -4.776206      -129.9672
  37   2.0000      -4.774137      -129.9109
  38   2.0000      -3.225293       -87.7647
  39   2.0000      -1.992465       -54.2177
  40   2.0000      -1.978030       -53.8249
  41   2.0000      -1.947213       -52.9863
  42   2.0000      -1.117109       -30.3981
  43   2.0000      -0.888772       -24.1847
  44   2.0000      -0.887303       -24.1447
  45   2.0000      -0.881090       -23.9757
  46   2.0000      -0.880568       -23.9615
  47   2.0000      -0.828186       -22.5361
  48   2.0000      -0.794563       -21.6211
  49   2.0000      -0.776414       -21.1273
  50   2.0000      -0.771605       -20.9964
  51   2.0000      -0.770772       -20.9738
  52   2.0000      -0.768480       -20.9114
  53   2.0000      -0.767633       -20.8884
  54   2.0000      -0.766572       -20.8595
  55   2.0000      -0.765697       -20.8357
  56   2.0000      -0.696012       -18.9395
  57   2.0000      -0.664566       -18.0838
  58   2.0000      -0.637506       -17.3474
  59   2.0000      -0.629039       -17.1170
  60   2.0000      -0.626074       -17.0363
  61   2.0000      -0.624847       -17.0029
  62   2.0000      -0.618178       -16.8215
  63   2.0000      -0.617665       -16.8075
  64   2.0000      -0.617094       -16.7920
  65   2.0000      -0.587716       -15.9926
  66   2.0000      -0.571223       -15.5438
  67   2.0000      -0.548055       -14.9133
  68   2.0000      -0.541736       -14.7414
  69   2.0000      -0.541329       -14.7303
  70   2.0000      -0.529924       -14.4200
  71   2.0000      -0.518428       -14.1071
  72   2.0000      -0.486159       -13.2291
  73   2.0000      -0.484673       -13.1886
  74   2.0000      -0.481146       -13.0927
  75   2.0000      -0.478453       -13.0194
  76   2.0000      -0.475213       -12.9312
  77   2.0000      -0.469568       -12.7776
  78   2.0000      -0.468242       -12.7415
  79   2.0000      -0.464263       -12.6332
  80   2.0000      -0.461905       -12.5691
  81   2.0000      -0.459695       -12.5089
  82   2.0000      -0.450677       -12.2636
  83   2.0000      -0.445462       -12.1216
  84   2.0000      -0.442525       -12.0417
  85   2.0000      -0.440896       -11.9974
  86   2.0000      -0.439979       -11.9724
  87   2.0000      -0.439130       -11.9493
  88   2.0000      -0.437834       -11.9141
  89   2.0000      -0.434212       -11.8155
  90   2.0000      -0.424420       -11.5490
  91   2.0000      -0.409288       -11.1373
  92   2.0000      -0.403499       -10.9798
  93   2.0000      -0.393805       -10.7160
  94   2.0000      -0.392450       -10.6791
  95   2.0000      -0.391214       -10.6455
  96   2.0000      -0.389493       -10.5986
  97   2.0000      -0.387727       -10.5506
  98   2.0000      -0.367631       -10.0037
  99   2.0000      -0.366219        -9.9653
 100   2.0000      -0.362676        -9.8689
 101   2.0000      -0.361316        -9.8319
 102   2.0000      -0.357358        -9.7242
 103   2.0000      -0.350051        -9.5254
 104   2.0000      -0.345976        -9.4145
 105   2.0000      -0.341300        -9.2872
 106   2.0000      -0.339359        -9.2344
 107   2.0000      -0.306782        -8.3480
 108   2.0000      -0.284639        -7.7454
 109   2.0000      -0.280090        -7.6216
 110   2.0000      -0.277652        -7.5553
 111   2.0000      -0.276831        -7.5330
 112   2.0000      -0.274383        -7.4663
 113   2.0000      -0.273784        -7.4501
 114   2.0000      -0.272118        -7.4047
 115   2.0000      -0.266524        -7.2525
 116   2.0000      -0.260847        -7.0980
 117   2.0000      -0.238312        -6.4848
 118   2.0000      -0.234985        -6.3943
 119   2.0000      -0.217369        -5.9149
 120   2.0000      -0.188088        -5.1181
 121   0.0000      -0.037669        -1.0250
 122   0.0000      -0.031507        -0.8573
 123   0.0000      -0.026602        -0.7239
 124   0.0000      -0.022441        -0.6107
 125   0.0000      -0.017963        -0.4888

MULLIKEN ATOMIC CHARGES
-----------------------
   0 H :   -0.077397
   1 Rh:   -0.306399
   2 P :    0.269610
   3 C :   -0.134176
   4 C :    0.019701
   5 C :   -0.009766
   6 C :   -0.006994
   7 C :   -0.014440
   8 C :   -0.031379
   9 C :   -0.114531
  10 C :   -0.013189
  11 C :   -0.010594
  12 C :   -0.002259
  13 C :   -0.020631
  14 C :   -0.010104
  15 C :   -0.130926
  16 C :   -0.128718
  17 P :    0.178247
  18 C :   -0.141097
  19 C :   -0.036268
  20 C :   -0.009403
  21 C :   -0.004284
  22 C :   -0.019256
  23 C :    0.019258
  24 C :   -0.122224
  25 C :   -0.011256
  26 C :   -0.012178
  27 C :   -0.010327
  28 C :   -0.008895
  29 C :   -0.031748
  30 C :    0.016811
  31 O :   -0.079687
  32 H :    0.051875
  33 H :    0.027608
  34 H :    0.026929
  35 H :    0.021608
  36 H :    0.020903
  37 H :    0.086656
  38 H :    0.023872
  39 H :    0.023944
  40 H :    0.022831
  41 H :    0.014064
  42 H :    0.074231
  43 H :    0.099002
  44 H :    0.098910
  45 H :    0.073394
  46 H :    0.019160
  47 H :    0.020910
  48 H :    0.024613
  49 H :    0.030799
  50 H :    0.043919
  51 H :    0.028607
  52 H :    0.022212
  53 H :    0.025844
  54 H :    0.024188
  55 H :    0.088421
Sum of atomic charges:   -0.0000000

LOEWDIN ATOMIC CHARGES
----------------------
   0 H :    0.005317
   1 Rh:   -1.577401
   2 P :    0.920563
   3 C :   -0.164138
   4 C :   -0.003751
   5 C :   -0.025865
   6 C :   -0.021696
   7 C :   -0.032260
   8 C :   -0.038864
   9 C :   -0.157145
  10 C :   -0.005726
  11 C :   -0.027887
  12 C :   -0.021514
  13 C :   -0.032958
  14 C :   -0.028460
  15 C :   -0.171295
  16 C :   -0.167517
  17 P :    0.909496
  18 C :   -0.163039
  19 C :   -0.040538
  20 C :   -0.030329
  21 C :   -0.023940
  22 C :   -0.025142
  23 C :   -0.011810
  24 C :   -0.159691
  25 C :   -0.029552
  26 C :   -0.031278
  27 C :   -0.024017
  28 C :   -0.028646
  29 C :   -0.014621
  30 C :    0.272633
  31 O :    0.011482
  32 H :    0.053028
  33 H :    0.038026
  34 H :    0.036055
  35 H :    0.035438
  36 H :    0.030527
  37 H :    0.063267
  38 H :    0.037256
  39 H :    0.035115
  40 H :    0.035035
  41 H :    0.031786
  42 H :    0.034444
  43 H :    0.043832
  44 H :    0.043924
  45 H :    0.033494
  46 H :    0.031577
  47 H :    0.035100
  48 H :    0.035683
  49 H :    0.038568
  50 H :    0.045817
  51 H :    0.035042
  52 H :    0.035007
  53 H :    0.035248
  54 H :    0.036978
  55 H :    0.059342

  Mayer bond orders larger than 0.100000
B(  0-H ,  1-Rh) :   0.7771 B(  1-Rh,  2-P ) :   0.6380 B(  1-Rh, 17-P ) :   0.6576
B(  1-Rh, 30-C ) :   1.0752 B(  1-Rh, 31-O ) :   0.1607 B(  2-P ,  3-C ) :   0.9711
B(  2-P ,  9-C ) :   0.9343 B(  2-P , 15-C ) :   1.0166 B(  2-P , 30-C ) :   0.1196
B(  3-C ,  4-C ) :   1.3993 B(  3-C ,  8-C ) :   1.3783 B(  4-C ,  5-C ) :   1.4009
B(  4-C , 32-H ) :   0.9687 B(  5-C ,  6-C ) :   1.3800 B(  5-C , 33-H ) :   0.9876
B(  6-C ,  7-C ) :   1.3916 B(  6-C , 34-H ) :   0.9865 B(  7-C ,  8-C ) :   1.4070
B(  7-C , 35-H ) :   0.9824 B(  8-C , 36-H ) :   0.9761 B(  9-C , 10-C ) :   1.4168
B(  9-C , 14-C ) :   1.3710 B( 10-C , 11-C ) :   1.3859 B( 10-C , 37-H ) :   0.9546
B( 11-C , 12-C ) :   1.3921 B( 11-C , 38-H ) :   0.9847 B( 12-C , 13-C ) :   1.3790
B( 12-C , 39-H ) :   0.9857 B( 13-C , 14-C ) :   1.4191 B( 13-C , 40-H ) :   0.9854
B( 14-C , 41-H ) :   0.9783 B( 15-C , 16-C ) :   1.0293 B( 15-C , 42-H ) :   0.9194
B( 15-C , 43-H ) :   0.9293 B( 16-C , 17-P ) :   1.0187 B( 16-C , 44-H ) :   0.9304
B( 16-C , 45-H ) :   0.9179 B( 17-P , 18-C ) :   0.9647 B( 17-P , 24-C ) :   0.9149
B( 18-C , 19-C ) :   1.3977 B( 18-C , 23-C ) :   1.3713 B( 19-C , 20-C ) :   1.3905
B( 19-C , 46-H ) :   0.9795 B( 20-C , 21-C ) :   1.4005 B( 20-C , 47-H ) :   0.9825
B( 21-C , 22-C ) :   1.3759 B( 21-C , 48-H ) :   0.9853 B( 22-C , 23-C ) :   1.4220
B( 22-C , 49-H ) :   0.9864 B( 23-C , 50-H ) :   0.9774 B( 24-C , 25-C ) :   1.3781
B( 24-C , 29-C ) :   1.4039 B( 25-C , 26-C ) :   1.4138 B( 25-C , 51-H ) :   0.9792
B( 26-C , 27-C ) :   1.3805 B( 26-C , 52-H ) :   0.9848 B( 27-C , 28-C ) :   1.3904
B( 27-C , 53-H ) :   0.9859 B( 28-C , 29-C ) :   1.3946 B( 28-C , 54-H ) :   0.9858
B( 29-C , 55-H ) :   0.9528 B( 30-C , 31-O ) :   2.3277

Dispersion correction           -0.089225842
FINAL SINGLE POINT ENERGY     -1910.027649421605

DIPOLE MOMENT
-------------
                                X             Y             Z
Electronic contribution:    -89.47876      13.06900     -59.55313
Nuclear contribution   :     91.46163     -13.25424      60.85509
                        -----------------------------------------
Total Dipole Moment    :      1.98287      -0.18524       1.30196
                        -----------------------------------------
Magnitude (a.u.)       :      2.37933
Magnitude (Debye)      :      6.04777

Dispersion correction in the Hessian             ... done   (      1.1 sec)

VIBRATIONAL FREQUENCIES
-----------------------

Scaling factor for frequencies =  1.000000000  (already applied!)

   0:         0.00 cm**-1
   1:         0.00 cm**-1
   2:         0.00 cm**-1
   3:         0.00 cm**-1
   4:         0.00 cm**-1
   5:         0.00 cm**-1
   6:         8.75 cm**-1
   7:        20.23 cm**-1
   8:        21.83 cm**-1
   9:        25.27 cm**-1
  10:        30.56 cm**-1
  11:        33.56 cm**-1
  12:        36.90 cm**-1
  13:        45.60 cm**-1
  14:        48.86 cm**-1
  15:        57.24 cm**-1
  16:        65.89 cm**-1
  17:        77.16 cm**-1
  18:        93.38 cm**-1
  19:       107.46 cm**-1
  20:       147.73 cm**-1
  21:       149.09 cm**-1
  22:       177.97 cm**-1
  23:       203.71 cm**-1
  24:       207.34 cm**-1
  25:       212.93 cm**-1
  26:       219.97 cm**-1
  27:       241.17 cm**-1
  28:       256.75 cm**-1
  29:       266.46 cm**-1
  30:       288.76 cm**-1
  31:       332.66 cm**-1
  32:       350.25 cm**-1
  33:       386.17 cm**-1
  34:       408.66 cm**-1
  35:       411.26 cm**-1
  36:       412.51 cm**-1
  37:       413.36 cm**-1
  38:       418.49 cm**-1
  39:       424.06 cm**-1
  40:       440.66 cm**-1
  41:       460.89 cm**-1
  42:       470.77 cm**-1
  43:       486.45 cm**-1
  44:       496.24 cm**-1
  45:       503.10 cm**-1
  46:       512.93 cm**-1
  47:       529.37 cm**-1
  48:       538.16 cm**-1
  49:       551.54 cm**-1
  50:       628.47 cm**-1
  51:       628.69 cm**-1
  52:       629.00 cm**-1
  53:       629.66 cm**-1
  54:       663.73 cm**-1
  55:       692.61 cm**-1
  56:       716.09 cm**-1
  57:       716.34 cm**-1
  58:       720.49 cm**-1
  59:       722.29 cm**-1
  60:       723.90 cm**-1
  61:       723.99 cm**-1
  62:       724.96 cm**-1
  63:       727.49 cm**-1
  64:       733.26 cm**-1
  65:       766.45 cm**-1
  66:       768.05 cm**-1
  67:       774.93 cm**-1
  68:       777.18 cm**-1
  69:       829.23 cm**-1
  70:       867.31 cm**-1
  71:       873.88 cm**-1
  72:       875.19 cm**-1
  73:       875.76 cm**-1
  74:       893.22 cm**-1
  75:       944.95 cm**-1
  76:       955.61 cm**-1
  77:       956.22 cm**-1
  78:       957.23 cm**-1
  79:      1005.86 cm**-1
  80:      1011.98 cm**-1
  81:      1012.64 cm**-1
  82:      1013.84 cm**-1
  83:      1014.92 cm**-1
  84:      1016.44 cm**-1
  85:      1017.20 cm**-1
  86:      1017.97 cm**-1
  87:      1023.64 cm**-1
  88:      1031.76 cm**-1
  89:      1033.25 cm**-1
  90:      1034.98 cm**-1
  91:      1036.69 cm**-1
  92:      1057.93 cm**-1
  93:      1058.57 cm**-1
  94:      1060.57 cm**-1
  95:      1061.10 cm**-1
  96:      1081.09 cm**-1
  97:      1101.94 cm**-1
  98:      1102.73 cm**-1
  99:      1106.71 cm**-1
 100:      1108.43 cm**-1
 101:      1130.41 cm**-1
 102:      1133.17 cm**-1
 103:      1139.48 cm**-1
 104:      1139.95 cm**-1
 105:      1154.86 cm**-1
 106:      1170.79 cm**-1
 107:      1171.22 cm**-1
 108:      1172.21 cm**-1
 109:      1172.34 cm**-1
 110:      1191.77 cm**-1
 111:      1193.12 cm**-1
 112:      1198.13 cm**-1
 113:      1199.36 cm**-1
 114:      1251.48 cm**-1
 115:      1282.63 cm**-1
 116:      1317.96 cm**-1
 117:      1320.29 cm**-1
 118:      1324.45 cm**-1
 119:      1324.82 cm**-1
 120:      1389.81 cm**-1
 121:      1390.37 cm**-1
 122:      1391.42 cm**-1
 123:      1392.34 cm**-1
 124:      1423.72 cm**-1
 125:      1434.25 cm**-1
 126:      1474.08 cm**-1
 127:      1474.73 cm**-1
 128:      1475.50 cm**-1
 129:      1475.76 cm**-1
 130:      1515.55 cm**-1
 131:      1516.60 cm**-1
 132:      1520.26 cm**-1
 133:      1521.91 cm**-1
 134:      1656.17 cm**-1
 135:      1656.49 cm**-1
 136:      1657.55 cm**-1
 137:      1658.18 cm**-1
 138:      1672.91 cm**-1
 139:      1673.01 cm**-1
 140:      1675.22 cm**-1
 141:      1676.60 cm**-1
 142:      1936.97 cm**-1
 143:      2120.40 cm**-1
 144:      3062.82 cm**-1
 145:      3069.33 cm**-1
 146:      3132.23 cm**-1
 147:      3140.46 cm**-1
 148:      3165.68 cm**-1
 149:      3166.00 cm**-1
 150:      3195.72 cm**-1
 151:      3200.32 cm**-1
 152:      3201.74 cm**-1
 153:      3203.29 cm**-1
 154:      3206.19 cm**-1
 155:      3206.89 cm**-1
 156:      3209.19 cm**-1
 157:      3210.42 cm**-1
 158:      3213.11 cm**-1
 159:      3217.33 cm**-1
 160:      3217.57 cm**-1
 161:      3219.53 cm**-1
 162:      3221.94 cm**-1
 163:      3223.98 cm**-1
 164:      3226.66 cm**-1
 165:      3229.27 cm**-1
 166:      3229.71 cm**-1
 167:      3231.44 cm**-1

IR SPECTRUM
-----------

 Mode    freq (cm**-1)   T**2         TX         TY         TZ
-------------------------------------------------------------------
   6:         8.75    0.437364  (  0.355258  -0.118501  -0.545081)
   7:        20.23    0.171975  (  0.126497  -0.135940  -0.370801)
   8:        21.83    0.181365  (  0.302803  -0.061896  -0.292992)
   9:        25.27    0.024056  ( -0.136924  -0.071137   0.015715)
  10:        30.56    0.079548  ( -0.080924   0.145587   0.227604)
  11:        33.56    0.040473  (  0.157104  -0.101398   0.074228)
  12:        36.90    0.047606  (  0.207015  -0.027739   0.063094)
  13:        45.60    0.295320  ( -0.078222   0.048988  -0.535539)
  14:        48.86    0.229585  ( -0.205560   0.364929  -0.232716)
  15:        57.24    0.157593  (  0.218872   0.228903   0.239356)
  16:        65.89    0.131930  ( -0.292475  -0.115751  -0.181632)
  17:        77.16    0.165717  ( -0.288663  -0.055942   0.281534)
  18:        93.38    0.831740  (  0.672118   0.164189  -0.594171)
  19:       107.46    0.944775  (  0.243242   0.917472  -0.209413)
  20:       147.73    0.293690  ( -0.086267  -0.533984   0.033302)
  21:       149.09    0.230069  ( -0.248057  -0.408550  -0.040296)
  22:       177.97    0.079697  (  0.093965  -0.109287   0.242743)
  23:       203.71    1.982554  (  1.325861   0.188863  -0.434715)
  24:       207.34    5.001998  ( -1.184169  -1.279699  -1.400754)
  25:       212.93    0.235957  (  0.200865  -0.214387   0.386845)
  26:       219.97    1.729839  ( -0.632378   1.152813  -0.030975)
  27:       241.17    2.047151  (  0.219234   1.350082  -0.419958)
  28:       256.75    0.150374  ( -0.010644  -0.247398  -0.298420)
  29:       266.46    0.635149  ( -0.303885   0.736385   0.023221)
  30:       288.76    0.126065  ( -0.341324  -0.089295  -0.039866)
  31:       332.66    1.455010  ( -0.536599  -0.940761  -0.531074)
  32:       350.25    7.015639  ( -1.829315   0.489038  -1.852049)
  33:       386.17    9.479281  ( -2.148017  -1.846183   1.207026)
  34:       408.66    0.090533  (  0.123297  -0.266028  -0.067525)
  35:       411.26    0.572025  (  0.471897   0.031441   0.590212)
  36:       412.51    0.668672  (  0.694172   0.426223   0.071631)
  37:       413.36    0.450559  ( -0.277104  -0.503815  -0.346328)
  38:       418.49   15.774085  (  1.501759   2.819888   2.359457)
  39:       424.06   20.769188  ( -2.246163   3.674824   1.489834)
  40:       440.66    5.352574  (  0.742892   1.277871   1.779812)
  41:       460.89   28.677373  ( -4.350928   0.034442  -3.121797)
  42:       470.77   18.003816  ( -4.183596   0.284915   0.648199)
  43:       486.45   20.589865  (  0.363970  -4.106185  -1.896480)
  44:       496.24   22.235952  (  3.116309  -0.405877   3.515656)
  45:       503.10    9.073572  (  1.327714  -2.151293  -1.637891)
  46:       512.93   29.129849  (  3.156034  -3.335168  -2.836539)
  47:       529.37   17.640431  ( -0.333443   4.173356   0.335186)
  48:       538.16    5.101977  (  1.700393   1.100698   0.999551)
  49:       551.54  167.720050  (  2.568729  12.404499  -2.692598)
  50:       628.47    1.613560  ( -0.146693   1.079493   0.653251)
  51:       628.69    0.209692  ( -0.085143  -0.063864   0.445381)
  52:       629.00    0.208479  (  0.066765  -0.403833   0.202337)
  53:       629.66    1.379256  ( -0.480780   1.047600   0.225035)
  54:       663.73   29.816691  (  3.122224  -3.928661  -2.152680)
  55:       692.61   36.224873  (  4.840994  -0.455037   3.547195)
  56:       716.09   28.724992  ( -2.697339   4.339661   1.617621)
  57:       716.34    0.432808  (  0.487822  -0.110746   0.427286)
  58:       720.49   40.200162  ( -3.751602   3.989977   3.194641)
  59:       722.29   44.535466  (  2.227475  -5.539533   2.981174)
  60:       723.90   24.846841  (  3.012128   2.124358   3.355746)
  61:       723.99   36.576843  ( -0.400238   4.032734   4.489289)
  62:       724.96    7.459686  ( -2.628908   0.369535   0.641850)
  63:       727.49    8.603288  (  1.021479   2.197254  -1.652859)
  64:       733.26   71.057668  (  6.704697   4.398172   2.600152)
  65:       766.45   14.580544  (  2.292870  -0.156970   3.049369)
  66:       768.05    2.789064  ( -1.238150  -0.423168   1.037776)
  67:       774.93    9.941738  (  1.540899  -0.677037  -2.666269)
  68:       777.18    5.692168  ( -2.243673   0.761441  -0.279831)
  69:       829.23   72.993871  (  0.379896  -8.094048  -2.708493)
  70:       867.31    1.969785  (  0.310983   1.275365   0.496508)
  71:       873.88    0.265301  (  0.187243  -0.464343   0.120941)
  72:       875.19    0.415995  (  0.012309   0.637917  -0.094367)
  73:       875.76    0.193857  ( -0.304718  -0.289339  -0.131479)
  74:       893.22   12.942692  (  2.870208  -0.221856   2.157633)
  75:       944.95    0.695213  ( -0.520555   0.366429  -0.538484)
  76:       955.61    0.283183  ( -0.172309   0.490545  -0.113394)
  77:       956.22    0.277552  (  0.459170  -0.072021   0.248048)
  78:       957.23    0.112883  (  0.199273   0.027975   0.269055)
  79:      1005.86    0.373195  (  0.027214  -0.594865  -0.136345)
  80:      1011.98    0.038832  ( -0.071267   0.164924  -0.080952)
  81:      1012.64    0.060488  (  0.147884   0.064757  -0.185539)
  82:      1013.84    0.117825  ( -0.035813  -0.335717  -0.061936)
  83:      1014.92    0.779401  ( -0.667660   0.203772   0.540470)
  84:      1016.44    1.090683  ( -0.501897  -0.807035   0.432987)
  85:      1017.20    0.818480  (  0.589141  -0.048612  -0.684857)
  86:      1017.97    1.464825  (  0.612201   0.839774  -0.620334)
  87:      1023.64    0.059798  ( -0.202209   0.046012  -0.129584)
  88:      1031.76    0.093108  ( -0.269219  -0.141966  -0.021791)
  89:      1033.25    0.181249  ( -0.208955  -0.031751   0.369565)
  90:      1034.98    0.113482  ( -0.236473   0.218683   0.098692)
  91:      1036.69    0.272536  ( -0.205543  -0.375317   0.299041)
  92:      1057.93    6.009182  (  1.807312  -0.705514  -1.498350)
  93:      1058.57    5.336497  ( -0.736112   0.929498   1.982592)
  94:      1060.57    6.353665  ( -1.129012  -2.074303   0.881059)
  95:      1061.10    0.357742  (  0.389751   0.429179  -0.147112)
  96:      1081.09   10.131890  ( -2.286460   0.242859   2.201139)
  97:      1101.94    5.249871  ( -1.019687   0.288229   2.031510)
  98:      1102.73    1.671913  ( -1.083470   0.315069   0.631457)
  99:      1106.71    6.395492  ( -1.407641   1.578374  -1.386642)
 100:      1108.43    2.893830  (  0.723271   0.679743   1.381542)
 101:      1130.41   37.917739  ( -4.880451   1.394953   3.486122)
 102:      1133.17   41.877023  ( -2.702432   2.116640   5.485774)
 103:      1139.48   41.033066  ( -2.153591  -5.895014   1.282157)
 104:      1139.95   17.267077  (  1.613670   3.599587  -1.306186)
 105:      1154.86    1.653278  (  0.708904  -0.298681   1.030302)
 106:      1170.79    0.135855  (  0.243292  -0.271128   0.056159)
 107:      1171.22    0.323521  (  0.243055   0.355408   0.371659)
 108:      1172.21    0.185947  ( -0.231774  -0.357789   0.064922)
 109:      1172.34    0.094146  ( -0.158196  -0.141363  -0.221667)
 110:      1191.77    6.798570  ( -2.009243   0.971476   1.348238)
 111:      1193.12    7.660601  (  0.688194  -0.987480  -2.492363)
 112:      1198.13   10.599031  (  1.191398   2.985715  -0.514886)
 113:      1199.36    0.630186  (  0.549727   0.498296   0.282290)
 114:      1251.48    1.529635  ( -0.737702   0.084646   0.989073)
 115:      1282.63    0.846616  ( -0.615890  -0.141249  -0.668838)
 116:      1317.96    5.728214  ( -0.306802   1.504141  -1.836205)
 117:      1320.29    2.289144  (  1.377260   0.566284  -0.267622)
 118:      1324.45    6.140766  (  1.425409  -0.458255   1.974583)
 119:      1324.82    2.334359  ( -1.508267   0.166119  -0.178587)
 120:      1389.81    4.637625  ( -0.263041  -2.082361   0.481879)
 121:      1390.37    1.859842  ( -0.755794   0.092886   1.131367)
 122:      1391.42    2.125861  ( -0.036231  -1.391939  -0.432498)
 123:      1392.34    0.796137  (  0.664189  -0.345610  -0.485330)
 124:      1423.72   11.459294  (  1.993864   1.961201  -1.907221)
 125:      1434.25    1.725370  (  0.871088  -0.212032   0.960010)
 126:      1474.08   23.516806  (  1.598079  -2.803484   3.619865)
 127:      1474.73    7.519743  ( -0.349402   2.322096  -1.416168)
 128:      1475.50   22.730874  ( -4.356428  -0.968717  -1.677498)
 129:      1475.76   14.540861  ( -1.969788  -2.772845  -1.723986)
 130:      1515.55   13.143317  ( -2.679376   0.751943   2.323541)
 131:      1516.60    9.870739  ( -1.037658   0.763986   2.865367)
 132:      1520.26   10.382037  ( -1.103513  -2.948329   0.686772)
 133:      1521.91    7.580448  (  0.982114   2.520551  -0.512564)
 134:      1656.17    0.990367  ( -0.061406   0.974795  -0.190711)
 135:      1656.49    3.049717  (  0.433379  -1.388469  -0.966465)
 136:      1657.55    1.159135  ( -0.209055  -1.049489  -0.118343)
 137:      1658.18    0.506178  (  0.416845  -0.554797   0.156903)
 138:      1672.91    0.077399  ( -0.057499   0.046418  -0.268212)
 139:      1673.01    0.120343  (  0.317646   0.002082  -0.139426)
 140:      1675.22    0.352394  ( -0.016856  -0.593375   0.003972)
 141:      1676.60    1.073572  (  0.001776  -1.015301   0.206720)
 142:      1936.97  197.245805  (  4.626181 -12.628056   4.046784)
 143:      2120.40  1039.974815  ( 26.370210  11.376746  14.668213)
 144:      3062.82   10.895868  ( -0.238109  -2.840399   1.664725)
 145:      3069.33    7.235134  (  1.937201   1.810018   0.454117)
 146:      3132.23    4.543445  ( -1.727609   0.776766  -0.977470)
 147:      3140.46    2.680130  ( -0.065842  -1.131108  -1.181689)
 148:      3165.68    4.121440  ( -0.200012   1.225845   1.605846)
 149:      3166.00    2.159419  ( -0.867459   0.487389   1.081382)
 150:      3195.72    0.104464  ( -0.018148   0.063792  -0.316330)
 151:      3200.32    0.243956  ( -0.095901   0.349514   0.335558)
 152:      3201.74    1.049751  (  0.747063   0.599064   0.364377)
 153:      3203.29    0.718978  (  0.452717   0.699893  -0.155481)
 154:      3206.19    0.246485  ( -0.179532  -0.122888   0.446265)
 155:      3206.89    4.134317  ( -1.450852  -1.393458   0.296008)
 156:      3209.19    0.839016  ( -0.361251   0.159841  -0.826417)
 157:      3210.42    0.370816  ( -0.558865  -0.075430   0.229774)
 158:      3213.11    0.677736  (  0.188829  -0.115691   0.792903)
 159:      3217.33    2.340042  (  0.362385   1.164368  -0.923562)
 160:      3217.57    8.283844  ( -0.748208   2.297241  -1.564197)
 161:      3219.53    8.904509  (  2.152923   1.861210   0.897401)
 162:      3221.94    9.283839  ( -1.675651   1.353169  -2.155219)
 163:      3223.98    8.703901  (  1.595686   0.945410   2.294316)
 164:      3226.66   16.835615  (  3.064517  -1.507152  -2.274388)
 165:      3229.27   17.604027  ( -1.962892   1.410650   3.429453)
 166:      3229.71   15.484575  ( -2.122235  -3.199302   0.863229)
 167:      3231.44   12.041275  ( -0.996191  -2.860848   1.692463)

--------------------------
THERMOCHEMISTRY AT 298.15K
--------------------------

Temperature         ... 298.15 K
Pressure            ... 1.00 atm
Total Mass          ... 530.35 AMU

Throughout the following assumptions are being made:
  (1) The electronic state is orbitally nondegenerate
  (2) There are no thermally accessible electronically excited states
  (3) Hindered rotations indicated by low frequency modes are not
      treated as such but are treated as vibrations and this may
      cause some error
  (4) All equations used are the standard statistical mechanics
      equations for an ideal gas
  (5) All vibrations are strictly harmonic

freq.       8.75  E(vib)   ...       0.58
freq.      20.23  E(vib)   ...       0.56
freq.      21.83  E(vib)   ...       0.56
freq.      25.27  E(vib)   ...       0.56
freq.      30.56  E(vib)   ...       0.55
freq.      33.56  E(vib)   ...       0.55
freq.      36.90  E(vib)   ...       0.54
freq.      45.60  E(vib)   ...       0.53
freq.      48.86  E(vib)   ...       0.53
freq.      57.24  E(vib)   ...       0.51
freq.      65.89  E(vib)   ...       0.50
freq.      77.16  E(vib)   ...       0.49
freq.      93.38  E(vib)   ...       0.47
freq.     107.46  E(vib)   ...       0.45
freq.     147.73  E(vib)   ...       0.41
freq.     149.09  E(vib)   ...       0.40
freq.     177.97  E(vib)   ...       0.37
freq.     203.71  E(vib)   ...       0.35
freq.     207.34  E(vib)   ...       0.34
freq.     212.93  E(vib)   ...       0.34
freq.     219.97  E(vib)   ...       0.33
freq.     241.17  E(vib)   ...       0.31
freq.     256.75  E(vib)   ...       0.30
freq.     266.46  E(vib)   ...       0.29
freq.     288.76  E(vib)   ...       0.27
freq.     332.66  E(vib)   ...       0.24
freq.     350.25  E(vib)   ...       0.23
freq.     386.17  E(vib)   ...       0.20
freq.     408.66  E(vib)   ...       0.19
freq.     411.26  E(vib)   ...       0.19
freq.     412.51  E(vib)   ...       0.19
freq.     413.36  E(vib)   ...       0.19
freq.     418.49  E(vib)   ...       0.18
freq.     424.06  E(vib)   ...       0.18
freq.     440.66  E(vib)   ...       0.17
freq.     460.89  E(vib)   ...       0.16
freq.     470.77  E(vib)   ...       0.15
freq.     486.45  E(vib)   ...       0.15
freq.     496.24  E(vib)   ...       0.14
freq.     503.10  E(vib)   ...       0.14
freq.     512.93  E(vib)   ...       0.13
freq.     529.37  E(vib)   ...       0.13
freq.     538.16  E(vib)   ...       0.12
freq.     551.54  E(vib)   ...       0.12
freq.     628.47  E(vib)   ...       0.09
freq.     628.69  E(vib)   ...       0.09
freq.     629.00  E(vib)   ...       0.09
freq.     629.66  E(vib)   ...       0.09
freq.     663.73  E(vib)   ...       0.08
freq.     692.61  E(vib)   ...       0.07
freq.     716.09  E(vib)   ...       0.07
freq.     716.34  E(vib)   ...       0.07
freq.     720.49  E(vib)   ...       0.07
freq.     722.29  E(vib)   ...       0.07
freq.     723.90  E(vib)   ...       0.06
freq.     723.99  E(vib)   ...       0.06
freq.     724.96  E(vib)   ...       0.06
freq.     727.49  E(vib)   ...       0.06
freq.     733.26  E(vib)   ...       0.06
freq.     766.45  E(vib)   ...       0.06
freq.     768.05  E(vib)   ...       0.06
freq.     774.93  E(vib)   ...       0.05
freq.     777.18  E(vib)   ...       0.05
freq.     829.23  E(vib)   ...       0.04
freq.     867.31  E(vib)   ...       0.04
freq.     873.88  E(vib)   ...       0.04
freq.     875.19  E(vib)   ...       0.04
freq.     875.76  E(vib)   ...       0.04
freq.     893.22  E(vib)   ...       0.03
freq.     944.95  E(vib)   ...       0.03
freq.     955.61  E(vib)   ...       0.03
freq.     956.22  E(vib)   ...       0.03
freq.     957.23  E(vib)   ...       0.03
freq.    1005.86  E(vib)   ...       0.02
freq.    1011.98  E(vib)   ...       0.02
freq.    1012.64  E(vib)   ...       0.02
freq.    1013.84  E(vib)   ...       0.02
freq.    1014.92  E(vib)   ...       0.02
freq.    1016.44  E(vib)   ...       0.02
freq.    1017.20  E(vib)   ...       0.02
freq.    1017.97  E(vib)   ...       0.02
freq.    1023.64  E(vib)   ...       0.02
freq.    1031.76  E(vib)   ...       0.02
freq.    1033.25  E(vib)   ...       0.02
freq.    1034.98  E(vib)   ...       0.02
freq.    1036.69  E(vib)   ...       0.02
freq.    1057.93  E(vib)   ...       0.02
freq.    1058.57  E(vib)   ...       0.02
freq.    1060.57  E(vib)   ...       0.02
freq.    1061.10  E(vib)   ...       0.02
freq.    1081.09  E(vib)   ...       0.02
freq.    1101.94  E(vib)   ...       0.02
freq.    1102.73  E(vib)   ...       0.02
freq.    1106.71  E(vib)   ...       0.02
freq.    1108.43  E(vib)   ...       0.02
freq.    1130.41  E(vib)   ...       0.01
freq.    1133.17  E(vib)   ...       0.01
freq.    1139.48  E(vib)   ...       0.01
freq.    1139.95  E(vib)   ...       0.01
freq.    1154.86  E(vib)   ...       0.01
freq.    1170.79  E(vib)   ...       0.01
freq.    1171.22  E(vib)   ...       0.01
freq.    1172.21  E(vib)   ...       0.01
freq.    1172.34  E(vib)   ...       0.01
freq.    1191.77  E(vib)   ...       0.01
freq.    1193.12  E(vib)   ...       0.01
freq.    1198.13  E(vib)   ...       0.01
freq.    1199.36  E(vib)   ...       0.01
freq.    1251.48  E(vib)   ...       0.01
freq.    1282.63  E(vib)   ...       0.01
freq.    1317.96  E(vib)   ...       0.01
freq.    1320.29  E(vib)   ...       0.01
freq.    1324.45  E(vib)   ...       0.01
freq.    1324.82  E(vib)   ...       0.01
freq.    1389.81  E(vib)   ...       0.00
freq.    1390.37  E(vib)   ...       0.00
freq.    1391.42  E(vib)   ...       0.00
freq.    1392.34  E(vib)   ...       0.00
freq.    1423.72  E(vib)   ...       0.00
freq.    1434.25  E(vib)   ...       0.00
freq.    1474.08  E(vib)   ...       0.00
freq.    1474.73  E(vib)   ...       0.00
freq.    1475.50  E(vib)   ...       0.00
freq.    1475.76  E(vib)   ...       0.00
freq.    1515.55  E(vib)   ...       0.00
freq.    1516.60  E(vib)   ...       0.00
freq.    1520.26  E(vib)   ...       0.00
freq.    1521.91  E(vib)   ...       0.00
freq.    1656.17  E(vib)   ...       0.00
freq.    1656.49  E(vib)   ...       0.00
freq.    1657.55  E(vib)   ...       0.00
freq.    1658.18  E(vib)   ...       0.00
freq.    1672.91  E(vib)   ...       0.00
freq.    1673.01  E(vib)   ...       0.00
freq.    1675.22  E(vib)   ...       0.00
freq.    1676.60  E(vib)   ...       0.00
freq.    1936.97  E(vib)   ...       0.00
freq.    2120.40  E(vib)   ...       0.00
freq.    3062.82  E(vib)   ...       0.00
freq.    3069.33  E(vib)   ...       0.00
freq.    3132.23  E(vib)   ...       0.00
freq.    3140.46  E(vib)   ...       0.00
freq.    3165.68  E(vib)   ...       0.00
freq.    3166.00  E(vib)   ...       0.00

Rotational constants in cm-1:     0.005218     0.003194     0.002604

                             ****ORCA TERMINATED NORMALLY****
TOTAL RUN TIME: 0 days 4 hours 10 minutes 18 seconds 115 msec
