                         Program Version 4.2.0 -  RELEASE  -
|  1> ! PBE0 def2-SVP RIJDX D3BJ opt freq
|  2> %pal nprocs 10 end
|  3> %maxcore 3036
|  4>
|  5> %basis
|  6>   newgto Ni "def2-TZVP" end
|  7> end
|  8>
|  9> *xyzfile 0 1 xtbopt.xyz
| 10>
| 11>                          ****END OF INPUT****
 Total Charge           Charge          ....    0
 Multiplicity           Mult            ....    1
 Number of Electrons    NEL             ....  184
Dispersion correction           -0.068128303
FINAL SINGLE POINT ENERGY     -2661.331222432083
Dispersion correction            ... done
Dispersion correction           -0.068151286
FINAL SINGLE POINT ENERGY     -2661.334917054560
Dispersion correction            ... done
Dispersion correction           -0.067990403
FINAL SINGLE POINT ENERGY     -2661.335157264730
Dispersion correction            ... done
FINAL SINGLE POINT ENERGY     -2661.336066601925
FINAL SINGLE POINT ENERGY     -2661.336811288318
FINAL SINGLE POINT ENERGY     -2661.336590050779
FINAL SINGLE POINT ENERGY     -2661.337927442126
FINAL SINGLE POINT ENERGY     -2661.337468361415
FINAL SINGLE POINT ENERGY     -2661.338234918696
FINAL SINGLE POINT ENERGY     -2661.338285970519
FINAL SINGLE POINT ENERGY     -2661.338425753433
FINAL SINGLE POINT ENERGY     -2661.338433680784
FINAL SINGLE POINT ENERGY     -2661.338471656931
FINAL SINGLE POINT ENERGY     -2661.338480934277
FINAL SINGLE POINT ENERGY     -2661.338489364851
FINAL SINGLE POINT ENERGY     -2661.338494300442
FINAL SINGLE POINT ENERGY     -2661.338495041434
Dispersion correction           -0.068698267
FINAL SINGLE POINT ENERGY     -2661.338477928162
Dispersion correction            ... done
Dispersion correction           -0.068719526
FINAL SINGLE POINT ENERGY     -2661.338498490521
Dispersion correction            ... done
                    ***********************HURRAY********************

CARTESIAN COORDINATES (ANGSTROEM)
---------------------------------
  O      1.210378   -0.031981   -0.111352
  C      2.339982   -0.152222    0.033790
  Ni     4.108630   -0.367340    0.250414
  C      4.954503   -0.380748   -1.332701
  O      5.480439   -0.405228   -2.349751
  P      4.881636    1.414231    1.448467
  C      4.310192    1.316138    3.282570
  C      5.108217    0.233014    4.017851
  C      4.419594    2.619984    4.079207
  C      2.849785    0.841466    3.299945
  C      6.805436    1.481816    1.436803
  C      7.303686    1.954846    0.065228
  C      7.436217    2.369572    2.512725
  C      7.331674    0.048160    1.596256
  C      4.237436    3.075010    0.722823
  C      2.757170    3.262730    1.074743
  C      5.000344    4.324593    1.172336
  C      4.293996    2.975063   -0.807671
  C      4.465809   -1.859987    1.181558
  O      4.686645   -2.824786    1.757454
  H      6.153038    0.512627    4.200062
  H      5.089338   -0.729356    3.489023
  H      4.640666    0.069209    5.002586
  H      5.439432    3.023516    4.103135
  H      4.122375    2.421475    5.122437
  H      3.749574    3.402734    3.701805
  H      2.749352   -0.147166    2.830546
  H      2.159035    1.525898    2.794699
  H      2.523071    0.753651    4.349591
  H      7.105272    3.016472   -0.127911
  H      6.879265    1.363810   -0.757605
  H      8.397231    1.818207    0.032132
  H      7.098685    3.411536    2.458158
  H      8.530714    2.370528    2.373838
  H      7.244427    2.000144    3.528250
  H      6.978539   -0.596064    0.778743
  H      7.043548   -0.421444    2.542916
  H      8.434126    0.072121    1.560566
  H      2.590584    3.490180    2.134882
  H      2.147800    2.391238    0.800283
  H      2.374793    4.119818    0.496514
  H      5.011040    4.450446    2.262233
  H      4.506973    5.213307    0.744285
  H      6.037704    4.334654    0.816419
  H      3.655084    2.160534   -1.176055
  H      5.304130    2.810637   -1.198465
  H      3.921508    3.921205   -1.235612

 Multiplicity           Mult            ....    1
 Number of Electrons    NEL             ....  184
 Basis Dimension        Dim             ....  450

ORBITAL ENERGIES
----------------

  NO   OCC          E(Eh)            E(eV)
   0   2.0000    -300.145085     -8167.3630
   1   2.0000     -77.230678     -2101.5536
   2   2.0000     -35.894882      -976.7494
   3   2.0000     -31.283241      -851.2603
   4   2.0000     -31.283219      -851.2597
   5   2.0000     -31.279685      -851.1635
   6   2.0000     -19.279800      -524.6300
   7   2.0000     -19.279662      -524.6263
   8   2.0000     -19.279651      -524.6260
   9   2.0000     -10.336848      -281.2799
  10   2.0000     -10.336770      -281.2778
  11   2.0000     -10.336706      -281.2761
  12   2.0000     -10.270373      -279.4711
  13   2.0000     -10.270312      -279.4694
  14   2.0000     -10.269868      -279.4573
  15   2.0000     -10.238203      -278.5957
  16   2.0000     -10.238125      -278.5936
  17   2.0000     -10.238059      -278.5918
  18   2.0000     -10.236722      -278.5554
  19   2.0000     -10.236321      -278.5444
  20   2.0000     -10.236279      -278.5433
  21   2.0000     -10.230301      -278.3806
  22   2.0000     -10.230034      -278.3734
  23   2.0000     -10.229682      -278.3638
  24   2.0000      -6.633522      -180.5073
  25   2.0000      -4.773573      -129.8955
  26   2.0000      -4.773536      -129.8945
  27   2.0000      -4.771364      -129.8354
  28   2.0000      -4.060040      -110.4793
  29   2.0000      -2.635131       -71.7056
  30   2.0000      -2.635055       -71.7035
  31   2.0000      -2.625287       -71.4377
  32   2.0000      -1.142024       -31.0761
  33   2.0000      -1.141809       -31.0702
  34   2.0000      -1.141675       -31.0666
  35   2.0000      -0.860725       -23.4215
  36   2.0000      -0.835394       -22.7322
  37   2.0000      -0.835294       -22.7295
  38   2.0000      -0.719922       -19.5901
  39   2.0000      -0.712485       -19.3877
  40   2.0000      -0.712396       -19.3853
  41   2.0000      -0.705079       -19.1862
  42   2.0000      -0.704993       -19.1838
  43   2.0000      -0.695098       -18.9146
  44   2.0000      -0.667197       -18.1553
  45   2.0000      -0.579547       -15.7703
  46   2.0000      -0.570677       -15.5289
  47   2.0000      -0.570517       -15.5246
  48   2.0000      -0.562135       -15.2965
  49   2.0000      -0.562028       -15.2936
  50   2.0000      -0.541495       -14.7348
  51   2.0000      -0.492498       -13.4016
  52   2.0000      -0.492324       -13.3968
  53   2.0000      -0.488472       -13.2920
  54   2.0000      -0.475030       -12.9262
  55   2.0000      -0.474845       -12.9212
  56   2.0000      -0.471495       -12.8300
  57   2.0000      -0.467486       -12.7209
  58   2.0000      -0.467373       -12.7179
  59   2.0000      -0.463651       -12.6166
  60   2.0000      -0.456837       -12.4312
  61   2.0000      -0.456206       -12.4140
  62   2.0000      -0.456126       -12.4118
  63   2.0000      -0.452839       -12.3224
  64   2.0000      -0.448299       -12.1988
  65   2.0000      -0.448162       -12.1951
  66   2.0000      -0.442553       -12.0425
  67   2.0000      -0.442478       -12.0404
  68   2.0000      -0.431270       -11.7354
  69   2.0000      -0.414725       -11.2852
  70   2.0000      -0.409002       -11.1295
  71   2.0000      -0.408903       -11.1268
  72   2.0000      -0.397551       -10.8179
  73   2.0000      -0.397448       -10.8151
  74   2.0000      -0.392478       -10.6799
  75   2.0000      -0.388398       -10.5689
  76   2.0000      -0.380563       -10.3557
  77   2.0000      -0.380254       -10.3472
  78   2.0000      -0.366351        -9.9689
  79   2.0000      -0.366146        -9.9633
  80   2.0000      -0.365829        -9.9547
  81   2.0000      -0.350577        -9.5397
  82   2.0000      -0.350456        -9.5364
  83   2.0000      -0.333162        -9.0658
  84   2.0000      -0.311522        -8.4769
  85   2.0000      -0.311333        -8.4718
  86   2.0000      -0.310897        -8.4599
  87   2.0000      -0.287230        -7.8159
  88   2.0000      -0.287170        -7.8143
  89   2.0000      -0.239436        -6.5154
  90   2.0000      -0.239293        -6.5115
  91   2.0000      -0.225666        -6.1407
  92   0.0000      -0.013177        -0.3586
  93   0.0000      -0.001459        -0.0397
  94   0.0000      -0.001323        -0.0360
  95   0.0000       0.008678         0.2361
  96   0.0000       0.008846         0.2407

MULLIKEN ATOMIC CHARGES
-----------------------
   0 O :   -0.039771
   1 C :    0.174994
   2 Ni:   -0.684508
   3 C :    0.174420
   4 O :   -0.038398
   5 P :    0.381289
   6 C :   -0.500689
   7 C :    0.008561
   8 C :    0.035497
   9 C :    0.033984
  10 C :   -0.493140
  11 C :    0.000991
  12 C :    0.036551
  13 C :    0.020676
  14 C :   -0.491773
  15 C :   -0.000181
  16 C :    0.031182
  17 C :    0.036978
  18 C :    0.169690
  19 O :   -0.039134
  20 H :    0.047308
  21 H :    0.061264
  22 H :    0.036972
  23 H :    0.039894
  24 H :    0.034480
  25 H :    0.044925
  26 H :    0.059486
  27 H :    0.032382
  28 H :    0.032364
  29 H :    0.045641
  30 H :    0.061554
  31 H :    0.041403
  32 H :    0.036833
  33 H :    0.037624
  34 H :    0.042529
  35 H :    0.064107
  36 H :    0.033192
  37 H :    0.036795
  38 H :    0.045725
  39 H :    0.068557
  40 H :    0.037507
  41 H :    0.039673
  42 H :    0.034101
  43 H :    0.043734
  44 H :    0.063009
  45 H :    0.031259
  46 H :    0.030469
Sum of atomic charges:   -0.0000000

LOEWDIN ATOMIC CHARGES
----------------------
   0 O :    0.024393
   1 C :    0.274173
   2 Ni:   -1.568882
   3 C :    0.273621
   4 O :    0.024911
   5 P :    0.907455
   6 C :   -0.162896
   7 C :   -0.059098
   8 C :   -0.064561
   9 C :   -0.054658
  10 C :   -0.161856
  11 C :   -0.060793
  12 C :   -0.064016
  13 C :   -0.056463
  14 C :   -0.162478
  15 C :   -0.060603
  16 C :   -0.064558
  17 C :   -0.053645
  18 C :    0.272972
  19 O :    0.025239
  20 H :    0.022125
  21 H :    0.031621
  22 H :    0.032522
  23 H :    0.026562
  24 H :    0.031600
  25 H :    0.023952
  26 H :    0.039212
  27 H :    0.027115
  28 H :    0.028821
  29 H :    0.022192
  30 H :    0.031740
  31 H :    0.033095
  32 H :    0.026301
  33 H :    0.031780
  34 H :    0.023281
  35 H :    0.039691
  36 H :    0.027327
  37 H :    0.029461
  38 H :    0.022372
  39 H :    0.032469
  40 H :    0.032541
  41 H :    0.026413
  42 H :    0.031549
  43 H :    0.023580
  44 H :    0.039266
  45 H :    0.026887
  46 H :    0.028267

  Mayer bond orders larger than 0.100000
B(  0-O ,  1-C ) :   2.4034 B(  1-C ,  2-Ni) :   1.1249 B(  2-Ni,  3-C ) :   1.1257
B(  2-Ni,  5-P ) :   0.6012 B(  2-Ni, 18-C ) :   1.1212 B(  3-C ,  4-O ) :   2.4036
B(  5-P ,  6-C ) :   0.9434 B(  5-P , 10-C ) :   0.9440 B(  5-P , 14-C ) :   0.9429
B(  6-C ,  7-C ) :   1.0138 B(  6-C ,  8-C ) :   1.0064 B(  6-C ,  9-C ) :   1.0091
B(  7-C , 20-H ) :   0.9572 B(  7-C , 21-H ) :   0.9562 B(  7-C , 22-H ) :   0.9447
B(  8-C , 23-H ) :   0.9597 B(  8-C , 24-H ) :   0.9464 B(  8-C , 25-H ) :   0.9565
B(  9-C , 26-H ) :   0.9515 B(  9-C , 27-H ) :   0.9625 B(  9-C , 28-H ) :   0.9479
B( 10-C , 11-C ) :   1.0127 B( 10-C , 12-C ) :   1.0029 B( 10-C , 13-C ) :   1.0076
B( 11-C , 29-H ) :   0.9548 B( 11-C , 30-H ) :   0.9550 B( 11-C , 31-H ) :   0.9476
B( 12-C , 32-H ) :   0.9600 B( 12-C , 33-H ) :   0.9479 B( 12-C , 34-H ) :   0.9568
B( 13-C , 35-H ) :   0.9507 B( 13-C , 36-H ) :   0.9627 B( 13-C , 37-H ) :   0.9499
B( 14-C , 15-C ) :   1.0108 B( 14-C , 16-C ) :   1.0046 B( 14-C , 17-C ) :   1.0060
B( 15-C , 38-H ) :   0.9577 B( 15-C , 39-H ) :   0.9562 B( 15-C , 40-H ) :   0.9462
B( 16-C , 41-H ) :   0.9613 B( 16-C , 42-H ) :   0.9458 B( 16-C , 43-H ) :   0.9563
B( 17-C , 44-H ) :   0.9522 B( 17-C , 45-H ) :   0.9637 B( 17-C , 46-H ) :   0.9491
B( 18-C , 19-O ) :   2.4033

Dispersion correction           -0.068727596
FINAL SINGLE POINT ENERGY     -2661.338497497599

DIPOLE MOMENT
-------------
                                X             Y             Z
Electronic contribution:    -14.25313     -32.77285     -22.05524
Nuclear contribution   :     14.87159      34.20333      23.02237
                        -----------------------------------------
Total Dipole Moment    :      0.61846       1.43048       0.96713
                        -----------------------------------------
Magnitude (a.u.)       :      1.83415
Magnitude (Debye)      :      4.66204

Dispersion correction in the Hessian             ... done   (      0.5 sec)

VIBRATIONAL FREQUENCIES
-----------------------

Scaling factor for frequencies =  1.000000000  (already applied!)

   0:         0.00 cm**-1
   1:         0.00 cm**-1
   2:         0.00 cm**-1
   3:         0.00 cm**-1
   4:         0.00 cm**-1
   5:         0.00 cm**-1
   6:        32.84 cm**-1
   7:        62.23 cm**-1
   8:        63.66 cm**-1
   9:        72.06 cm**-1
  10:        72.88 cm**-1
  11:        75.90 cm**-1
  12:       112.27 cm**-1
  13:       112.77 cm**-1
  14:       133.31 cm**-1
  15:       135.38 cm**-1
  16:       160.77 cm**-1
  17:       165.99 cm**-1
  18:       204.78 cm**-1
  19:       205.32 cm**-1
  20:       212.62 cm**-1
  21:       213.72 cm**-1
  22:       218.15 cm**-1
  23:       232.37 cm**-1
  24:       253.49 cm**-1
  25:       255.24 cm**-1
  26:       267.86 cm**-1
  27:       269.86 cm**-1
  28:       269.93 cm**-1
  29:       292.52 cm**-1
  30:       298.67 cm**-1
  31:       299.51 cm**-1
  32:       304.56 cm**-1
  33:       307.86 cm**-1
  34:       327.89 cm**-1
  35:       339.05 cm**-1
  36:       342.34 cm**-1
  37:       367.44 cm**-1
  38:       368.48 cm**-1
  39:       373.57 cm**-1
  40:       395.53 cm**-1
  41:       396.52 cm**-1
  42:       420.28 cm**-1
  43:       427.75 cm**-1
  44:       428.14 cm**-1
  45:       437.35 cm**-1
  46:       476.77 cm**-1
  47:       477.46 cm**-1
  48:       479.06 cm**-1
  49:       479.68 cm**-1
  50:       499.39 cm**-1
  51:       513.22 cm**-1
  52:       514.99 cm**-1
  53:       515.24 cm**-1
  54:       572.58 cm**-1
  55:       605.90 cm**-1
  56:       606.74 cm**-1
  57:       837.99 cm**-1
  58:       838.24 cm**-1
  59:       840.77 cm**-1
  60:       943.38 cm**-1
  61:       943.85 cm**-1
  62:       946.08 cm**-1
  63:       950.16 cm**-1
  64:       950.27 cm**-1
  65:       950.84 cm**-1
  66:       953.98 cm**-1
  67:       954.61 cm**-1
  68:       955.76 cm**-1
  69:      1015.04 cm**-1
  70:      1024.75 cm**-1
  71:      1025.03 cm**-1
  72:      1030.92 cm**-1
  73:      1031.49 cm**-1
  74:      1033.62 cm**-1
  75:      1189.94 cm**-1
  76:      1190.28 cm**-1
  77:      1196.53 cm**-1
  78:      1212.12 cm**-1
  79:      1222.06 cm**-1
  80:      1222.38 cm**-1
  81:      1236.32 cm**-1
  82:      1236.77 cm**-1
  83:      1237.64 cm**-1
  84:      1370.08 cm**-1
  85:      1372.64 cm**-1
  86:      1373.20 cm**-1
  87:      1378.90 cm**-1
  88:      1380.15 cm**-1
  89:      1380.83 cm**-1
  90:      1400.66 cm**-1
  91:      1401.19 cm**-1
  92:      1413.52 cm**-1
  93:      1440.47 cm**-1
  94:      1441.09 cm**-1
  95:      1445.81 cm**-1
  96:      1452.85 cm**-1
  97:      1457.27 cm**-1
  98:      1458.19 cm**-1
  99:      1460.68 cm**-1
 100:      1463.74 cm**-1
 101:      1464.01 cm**-1
 102:      1470.49 cm**-1
 103:      1471.06 cm**-1
 104:      1472.53 cm**-1
 105:      1481.44 cm**-1
 106:      1482.38 cm**-1
 107:      1482.84 cm**-1
 108:      1494.15 cm**-1
 109:      1497.85 cm**-1
 110:      1498.30 cm**-1
 111:      2118.95 cm**-1
 112:      2119.50 cm**-1
 113:      2180.87 cm**-1
 114:      3053.17 cm**-1
 115:      3054.04 cm**-1
 116:      3056.14 cm**-1
 117:      3056.58 cm**-1
 118:      3058.50 cm**-1
 119:      3059.53 cm**-1
 120:      3060.90 cm**-1
 121:      3061.96 cm**-1
 122:      3064.42 cm**-1
 123:      3146.92 cm**-1
 124:      3148.38 cm**-1
 125:      3149.01 cm**-1
 126:      3149.51 cm**-1
 127:      3150.17 cm**-1
 128:      3151.47 cm**-1
 129:      3152.23 cm**-1
 130:      3152.71 cm**-1
 131:      3156.28 cm**-1
 132:      3188.64 cm**-1
 133:      3191.22 cm**-1
 134:      3191.44 cm**-1
 135:      3194.42 cm**-1
 136:      3196.78 cm**-1
 137:      3197.33 cm**-1
 138:      3200.79 cm**-1
 139:      3203.48 cm**-1
 140:      3204.45 cm**-1

IR SPECTRUM
-----------

 Mode    freq (cm**-1)   T**2         TX         TY         TZ
-------------------------------------------------------------------
   6:        32.84    0.001593  ( -0.014856  -0.030023  -0.021697)
   7:        62.23    0.031831  ( -0.092339  -0.057295   0.141499)
   8:        63.66    0.032615  ( -0.130959   0.111997  -0.054048)
   9:        72.06    0.018789  (  0.027765   0.021615   0.132478)
  10:        72.88    0.015533  ( -0.121721   0.006071   0.026072)
  11:        75.90    0.161361  ( -0.131940  -0.329051  -0.188888)
  12:       112.27    0.498952  (  0.633080  -0.308249   0.056073)
  13:       112.77    0.453994  (  0.221307   0.287195  -0.567923)
  14:       133.31    0.243418  ( -0.127945   0.299245  -0.370812)
  15:       135.38    0.212282  (  0.404414  -0.050966  -0.214789)
  16:       160.77    0.049063  ( -0.064057  -0.170758  -0.125704)
  17:       165.99    0.076179  ( -0.089527  -0.216245  -0.146295)
  18:       204.78    0.113941  (  0.077243  -0.184284   0.272054)
  19:       205.32    0.099206  ( -0.277288   0.056565   0.138268)
  20:       212.62    0.100633  ( -0.306857  -0.039354  -0.070164)
  21:       213.72    0.210927  (  0.374478  -0.092956  -0.249104)
  22:       218.15    0.268397  ( -0.143401   0.345047  -0.358853)
  23:       232.37    0.149183  ( -0.119748  -0.322864  -0.174935)
  24:       253.49    0.533358  (  0.277220  -0.364293   0.569032)
  25:       255.24    0.547025  ( -0.647281   0.054191   0.353716)
  26:       267.86    0.744632  (  0.305227   0.668207   0.452734)
  27:       269.86    0.129773  ( -0.231411   0.225419   0.159399)
  28:       269.93    0.135825  ( -0.085770  -0.321024   0.159412)
  29:       292.52    0.139396  ( -0.097606  -0.290592  -0.213132)
  30:       298.67    0.021721  ( -0.006542  -0.074969   0.126721)
  31:       299.51    0.017829  (  0.132838  -0.010157  -0.008966)
  32:       304.56    0.041036  ( -0.066684  -0.166505  -0.094153)
  33:       307.86    0.047775  (  0.048397   0.150186   0.151251)
  34:       327.89    0.643684  (  0.246402   0.659844   0.384155)
  35:       339.05    0.144842  ( -0.233140  -0.068056   0.293012)
  36:       342.34    0.136331  ( -0.300742   0.147779  -0.155069)
  37:       367.44    2.335791  ( -0.208195   0.932727  -1.192672)
  38:       368.48    2.372599  (  1.462937  -0.231546  -0.422848)
  39:       373.57    0.857094  ( -0.262953  -0.683711  -0.566118)
  40:       395.53    1.386490  (  0.064442  -0.695180   0.948188)
  41:       396.52    1.400877  ( -1.142892   0.237712   0.195365)
  42:       420.28    0.303799  (  0.141686   0.398533   0.353405)
  43:       427.75    1.493383  ( -0.083014  -0.660452   1.024839)
  44:       428.14    1.617295  (  1.218371  -0.345585  -0.115926)
  45:       437.35   10.567140  ( -1.064519  -2.575268  -1.673897)
  46:       476.77   35.505983  (  0.816678  -3.588069   4.686660)
  47:       477.46   32.647081  (  5.212028  -0.859089  -2.178030)
  48:       479.06   12.709642  (  2.975395  -1.830685   0.710813)
  49:       479.68    6.762879  (  1.292029   0.836098  -2.096301)
  50:       499.39   45.697685  ( -2.366303  -5.217959  -3.587646)
  51:       513.22    0.544188  ( -0.382420  -0.521622  -0.354757)
  52:       514.99    1.472998  ( -1.052563   0.589691   0.131813)
  53:       515.24    1.411363  ( -0.186261  -0.499609   1.061631)
  54:       572.58   10.765091  ( -1.098472  -2.559518  -1.734162)
  55:       605.90   10.505978  ( -3.023356   0.749338   0.896544)
  56:       606.74   10.653722  ( -0.278996   1.912664  -2.630133)
  57:       837.99   13.468883  (  2.698240   0.379729  -2.458494)
  58:       838.24   13.314133  ( -2.166047   2.091517  -2.061051)
  59:       840.77    3.537714  ( -0.505604  -1.669362  -0.703783)
  60:       943.38    1.245279  ( -0.342468  -0.610942   0.868761)
  61:       943.85    1.240185  ( -0.991033   0.497453  -0.102856)
  62:       946.08    3.297262  ( -0.584262  -1.378552  -1.027372)
  63:       950.16    0.143114  (  0.243218   0.201450   0.208271)
  64:       950.27    0.046484  (  0.101589   0.014877  -0.189585)
  65:       950.84    1.502481  ( -0.446172  -0.883016  -0.723667)
  66:       953.98    2.295275  ( -0.434011  -0.728196   1.255643)
  67:       954.61    2.312156  (  1.362833  -0.672884   0.045500)
  68:       955.76    0.043601  ( -0.140698   0.039211  -0.149223)
  69:      1015.04    0.015899  (  0.010266   0.125667  -0.001184)
  70:      1024.75    2.821197  ( -0.777898   1.110142  -0.991795)
  71:      1025.03    2.676041  (  1.376548   0.077632  -0.880415)
  72:      1030.92    1.304877  ( -0.663918  -0.268649   0.889897)
  73:      1031.49    1.155019  ( -0.743952   0.723897  -0.278438)
  74:      1033.62   13.987440  ( -1.279684  -2.869746  -2.028400)
  75:      1189.94   23.191136  ( -4.457835   0.626512   1.710650)
  76:      1190.28   22.516373  ( -1.011804   2.720769  -3.753671)
  77:      1196.53   13.997577  ( -1.130465  -3.029924  -1.881273)
  78:      1212.12    0.654351  ( -0.199814  -0.664455  -0.415843)
  79:      1222.06    0.085378  ( -0.263972   0.108049  -0.063421)
  80:      1222.38    0.055914  ( -0.036144  -0.093729   0.214062)
  81:      1236.32    0.422337  ( -0.393799  -0.202928   0.475478)
  82:      1236.77    0.342702  (  0.461621  -0.255301   0.253829)
  83:      1237.64    0.327274  ( -0.074110  -0.492075  -0.282213)
  84:      1370.08    0.717173  ( -0.551803   0.006698  -0.642372)
  85:      1372.64    4.864362  ( -1.887321   1.133453   0.132909)
  86:      1373.20    4.664055  (  0.667123   1.022167  -1.781622)
  87:      1378.90   10.716482  ( -1.316517  -2.539241  -1.592332)
  88:      1380.15    0.916153  ( -0.170453   0.108900   0.935542)
  89:      1380.83    1.286446  ( -0.282141   1.048790   0.326929)
  90:      1400.66   33.090576  ( -5.417128   1.288464   1.444007)
  91:      1401.19   32.622219  ( -0.457454   3.295175  -4.642712)
  92:      1413.52    2.209921  ( -0.409035  -1.174150  -0.814852)
  93:      1440.47    0.161371  ( -0.193667   0.318926  -0.148830)
  94:      1441.09    0.140263  (  0.301568   0.057709  -0.214451)
  95:      1445.81    0.288521  (  0.260609   0.427024   0.195587)
  96:      1452.85    0.883638  (  0.472372   0.698495   0.415461)
  97:      1457.27    2.559248  (  1.389317  -0.737618   0.291490)
  98:      1458.19    2.511929  ( -0.622260  -0.490266   1.372720)
  99:      1460.68    8.047558  ( -0.787863  -2.280944  -1.491350)
 100:      1463.74    1.225922  (  0.911211  -0.547365   0.309851)
 101:      1464.01    1.432971  (  0.672882   0.531250  -0.835448)
 102:      1470.49    3.905844  (  1.046729   0.533080  -1.589349)
 103:      1471.06    4.339115  ( -1.702424   1.023148  -0.627722)
 104:      1472.53    3.584670  (  0.603388   1.517849   0.957459)
 105:      1481.44    4.749163  ( -0.909098  -1.482265  -1.313619)
 106:      1482.38    4.954102  (  0.106559   1.391454  -1.733956)
 107:      1482.84    4.971154  ( -1.971132   0.811581   0.653551)
 108:      1494.15    2.407915  ( -0.848814  -1.122656  -0.653509)
 109:      1497.85   15.194663  (  3.536556  -0.635340  -1.511217)
 110:      1498.30   15.524052  (  0.848597  -2.417962   2.992890)
 111:      2118.95  927.031789  ( 26.223562  -1.202004 -15.424390)
 112:      2119.50  926.888989  ( 11.432634 -18.962148  20.895473)
 113:      2180.87  388.508854  ( -6.703076 -15.479839 -10.195696)
 114:      3053.17   14.677074  ( -2.321199   3.031954   0.310422)
 115:      3054.04   17.491527  (  0.973374  -0.983846   3.946659)
 116:      3056.14   14.632146  ( -3.133086  -1.637863   1.460590)
 117:      3056.58   17.555986  ( -3.169276  -1.545313  -2.263556)
 118:      3058.50   10.268834  ( -0.923509   3.062968  -0.184908)
 119:      3059.53    4.260843  (  1.146136   1.550409   0.737189)
 120:      3060.90   65.553380  (  7.642344  -0.009166  -2.673551)
 121:      3061.96   64.115312  (  1.673681  -5.452212   5.620275)
 122:      3064.42   38.526044  ( -0.229759   4.173123   4.588932)
 123:      3146.92    4.080530  ( -0.146779  -1.975424   0.395835)
 124:      3148.38    4.417630  (  0.917679  -1.225664   1.439876)
 125:      3149.01   28.247166  (  5.174480  -1.047538   0.612031)
 126:      3149.51   38.510819  ( -1.406772  -1.622370   5.822347)
 127:      3150.17   17.707673  ( -3.590428   1.816966   1.230909)
 128:      3151.47   17.867372  (  1.150682   4.035335   0.509290)
 129:      3152.23    0.718672  (  0.739489  -0.408312  -0.071477)
 130:      3152.71   10.807224  ( -0.680955   1.830436  -2.644433)
 131:      3156.28    1.355862  (  1.137598   0.114618   0.220445)
 132:      3188.64    8.632824  (  0.310095  -2.720143  -1.066531)
 133:      3191.22   10.244320  ( -1.716796  -1.505218  -2.243045)
 134:      3191.44    4.875507  ( -1.249181  -1.764988   0.447070)
 135:      3194.42    1.554124  (  0.535255   0.938785   0.621537)
 136:      3196.78    7.715168  ( -2.554011   1.084552   0.126268)
 137:      3197.33    7.298009  (  0.730032   1.223857  -2.295046)
 138:      3200.79    5.644608  ( -1.777587   1.565345  -0.185717)
 139:      3203.48    5.004945  ( -2.022447  -0.198346   0.935581)
 140:      3204.45    5.625654  ( -0.145131   1.044703  -2.124426)

--------------------------
THERMOCHEMISTRY AT 298.15K
--------------------------

Temperature         ... 298.15 K
Pressure            ... 1.00 atm
Total Mass          ... 345.05 AMU

Throughout the following assumptions are being made:
  (1) The electronic state is orbitally nondegenerate
  (2) There are no thermally accessible electronically excited states
  (3) Hindered rotations indicated by low frequency modes are not
      treated as such but are treated as vibrations and this may
      cause some error
  (4) All equations used are the standard statistical mechanics
      equations for an ideal gas
  (5) All vibrations are strictly harmonic

freq.      32.84  E(vib)   ...       0.55
freq.      62.23  E(vib)   ...       0.51
freq.      63.66  E(vib)   ...       0.51
freq.      72.06  E(vib)   ...       0.50
freq.      72.88  E(vib)   ...       0.49
freq.      75.90  E(vib)   ...       0.49
freq.     112.27  E(vib)   ...       0.45
freq.     112.77  E(vib)   ...       0.45
freq.     133.31  E(vib)   ...       0.42
freq.     135.38  E(vib)   ...       0.42
freq.     160.77  E(vib)   ...       0.39
freq.     165.99  E(vib)   ...       0.39
freq.     204.78  E(vib)   ...       0.35
freq.     205.32  E(vib)   ...       0.35
freq.     212.62  E(vib)   ...       0.34
freq.     213.72  E(vib)   ...       0.34
freq.     218.15  E(vib)   ...       0.33
freq.     232.37  E(vib)   ...       0.32
freq.     253.49  E(vib)   ...       0.30
freq.     255.24  E(vib)   ...       0.30
freq.     267.86  E(vib)   ...       0.29
freq.     269.86  E(vib)   ...       0.29
freq.     269.93  E(vib)   ...       0.29
freq.     292.52  E(vib)   ...       0.27
freq.     298.67  E(vib)   ...       0.26
freq.     299.51  E(vib)   ...       0.26
freq.     304.56  E(vib)   ...       0.26
freq.     307.86  E(vib)   ...       0.26
freq.     327.89  E(vib)   ...       0.24
freq.     339.05  E(vib)   ...       0.23
freq.     342.34  E(vib)   ...       0.23
freq.     367.44  E(vib)   ...       0.21
freq.     368.48  E(vib)   ...       0.21
freq.     373.57  E(vib)   ...       0.21
freq.     395.53  E(vib)   ...       0.20
freq.     396.52  E(vib)   ...       0.20
freq.     420.28  E(vib)   ...       0.18
freq.     427.75  E(vib)   ...       0.18
freq.     428.14  E(vib)   ...       0.18
freq.     437.35  E(vib)   ...       0.17
freq.     476.77  E(vib)   ...       0.15
freq.     477.46  E(vib)   ...       0.15
freq.     479.06  E(vib)   ...       0.15
freq.     479.68  E(vib)   ...       0.15
freq.     499.39  E(vib)   ...       0.14
freq.     513.22  E(vib)   ...       0.13
freq.     514.99  E(vib)   ...       0.13
freq.     515.24  E(vib)   ...       0.13
freq.     572.58  E(vib)   ...       0.11
freq.     605.90  E(vib)   ...       0.10
freq.     606.74  E(vib)   ...       0.10
freq.     837.99  E(vib)   ...       0.04
freq.     838.24  E(vib)   ...       0.04
freq.     840.77  E(vib)   ...       0.04
freq.     943.38  E(vib)   ...       0.03
freq.     943.85  E(vib)   ...       0.03
freq.     946.08  E(vib)   ...       0.03
freq.     950.16  E(vib)   ...       0.03
freq.     950.27  E(vib)   ...       0.03
freq.     950.84  E(vib)   ...       0.03
freq.     953.98  E(vib)   ...       0.03
freq.     954.61  E(vib)   ...       0.03
freq.     955.76  E(vib)   ...       0.03
freq.    1015.04  E(vib)   ...       0.02
freq.    1024.75  E(vib)   ...       0.02
freq.    1025.03  E(vib)   ...       0.02
freq.    1030.92  E(vib)   ...       0.02
freq.    1031.49  E(vib)   ...       0.02
freq.    1033.62  E(vib)   ...       0.02
freq.    1189.94  E(vib)   ...       0.01
freq.    1190.28  E(vib)   ...       0.01
freq.    1196.53  E(vib)   ...       0.01
freq.    1212.12  E(vib)   ...       0.01
freq.    1222.06  E(vib)   ...       0.01
freq.    1222.38  E(vib)   ...       0.01
freq.    1236.32  E(vib)   ...       0.01
freq.    1236.77  E(vib)   ...       0.01
freq.    1237.64  E(vib)   ...       0.01
freq.    1370.08  E(vib)   ...       0.01
freq.    1372.64  E(vib)   ...       0.01
freq.    1373.20  E(vib)   ...       0.01
freq.    1378.90  E(vib)   ...       0.01
freq.    1380.15  E(vib)   ...       0.01
freq.    1380.83  E(vib)   ...       0.01
freq.    1400.66  E(vib)   ...       0.00
freq.    1401.19  E(vib)   ...       0.00
freq.    1413.52  E(vib)   ...       0.00
freq.    1440.47  E(vib)   ...       0.00
freq.    1441.09  E(vib)   ...       0.00
freq.    1445.81  E(vib)   ...       0.00
freq.    1452.85  E(vib)   ...       0.00
freq.    1457.27  E(vib)   ...       0.00
freq.    1458.19  E(vib)   ...       0.00
freq.    1460.68  E(vib)   ...       0.00
freq.    1463.74  E(vib)   ...       0.00
freq.    1464.01  E(vib)   ...       0.00
freq.    1470.49  E(vib)   ...       0.00
freq.    1471.06  E(vib)   ...       0.00
freq.    1472.53  E(vib)   ...       0.00
freq.    1481.44  E(vib)   ...       0.00
freq.    1482.38  E(vib)   ...       0.00
freq.    1482.84  E(vib)   ...       0.00
freq.    1494.15  E(vib)   ...       0.00
freq.    1497.85  E(vib)   ...       0.00
freq.    1498.30  E(vib)   ...       0.00
freq.    2118.95  E(vib)   ...       0.00
freq.    2119.50  E(vib)   ...       0.00
freq.    2180.87  E(vib)   ...       0.00
freq.    3053.17  E(vib)   ...       0.00
freq.    3054.04  E(vib)   ...       0.00
freq.    3056.14  E(vib)   ...       0.00
freq.    3056.58  E(vib)   ...       0.00
freq.    3058.50  E(vib)   ...       0.00
freq.    3059.53  E(vib)   ...       0.00
freq.    3060.90  E(vib)   ...       0.00
freq.    3061.96  E(vib)   ...       0.00
freq.    3064.42  E(vib)   ...       0.00
freq.    3146.92  E(vib)   ...       0.00
freq.    3148.38  E(vib)   ...       0.00
freq.    3149.01  E(vib)   ...       0.00
freq.    3149.51  E(vib)   ...       0.00
freq.    3150.17  E(vib)   ...       0.00
freq.    3151.47  E(vib)   ...       0.00
freq.    3152.23  E(vib)   ...       0.00
freq.    3152.71  E(vib)   ...       0.00
freq.    3156.28  E(vib)   ...       0.00
freq.    3188.64  E(vib)   ...       0.00
freq.    3191.22  E(vib)   ...       0.00
freq.    3191.44  E(vib)   ...       0.00
freq.    3194.42  E(vib)   ...       0.00
freq.    3196.78  E(vib)   ...       0.00
freq.    3197.33  E(vib)   ...       0.00
freq.    3200.79  E(vib)   ...       0.00
freq.    3203.48  E(vib)   ...       0.00
freq.    3204.45  E(vib)   ...       0.00

------------
INNER ENERGY
------------

The inner energy is: U= E(el) + E(ZPE) + E(vib) + E(rot) + E(trans)
    E(el)   - is the total energy from the electronic structure calculation
              = E(kin-el) + E(nuc-el) + E(el-el) + E(nuc-nuc)
    E(ZPE)  - the the zero temperature vibrational energy from the frequency calculation

Rotational constants in cm-1:     0.010992     0.008683     0.008677

                             ****ORCA TERMINATED NORMALLY****
TOTAL RUN TIME: 0 days 1 hours 28 minutes 58 seconds 261 msec
