                         Program Version 4.2.0 -  RELEASE  -
|  1> ! PBE0 def2-SVP RIJDX D3BJ opt freq
|  2> %pal nprocs 10 end
|  3> %maxcore 3036
|  4>
|  5> %basis
|  6>   newgto Ni "def2-TZVP" end
|  7> end
|  8>
|  9> *xyzfile 0 1 xtbopt.xyz
| 10>
| 11>                          ****END OF INPUT****
 Total Charge           Charge          ....    0
 Multiplicity           Mult            ....    1
 Number of Electrons    NEL             ....  192
Dispersion correction           -0.070794805
FINAL SINGLE POINT ENERGY     -2700.580466096866
Dispersion correction            ... done
Dispersion correction           -0.070426283
FINAL SINGLE POINT ENERGY     -2700.584725922372
Dispersion correction            ... done
Dispersion correction           -0.070330053
FINAL SINGLE POINT ENERGY     -2700.585534507740
Dispersion correction            ... done
FINAL SINGLE POINT ENERGY     -2700.586753510741
FINAL SINGLE POINT ENERGY     -2700.587436242746
FINAL SINGLE POINT ENERGY     -2700.587719015427
FINAL SINGLE POINT ENERGY     -2700.588185444156
FINAL SINGLE POINT ENERGY     -2700.588420654311
FINAL SINGLE POINT ENERGY     -2700.588402979581
FINAL SINGLE POINT ENERGY     -2700.588548090879
FINAL SINGLE POINT ENERGY     -2700.588501090561
FINAL SINGLE POINT ENERGY     -2700.588584412636
FINAL SINGLE POINT ENERGY     -2700.588593172517
FINAL SINGLE POINT ENERGY     -2700.588600751757
FINAL SINGLE POINT ENERGY     -2700.588605608059
FINAL SINGLE POINT ENERGY     -2700.588607138554
Dispersion correction           -0.070785917
FINAL SINGLE POINT ENERGY     -2700.588608931481
Dispersion correction            ... done
Dispersion correction           -0.070785334
FINAL SINGLE POINT ENERGY     -2700.588609879861
Dispersion correction            ... done
                    ***********************HURRAY********************

CARTESIAN COORDINATES (ANGSTROEM)
---------------------------------
  O      4.440614    2.357639   -0.289646
  C      4.138076    1.267134   -0.117841
  Ni     3.615917   -0.417870    0.223519
  C      1.821903   -0.530968    0.206769
  O      0.679635   -0.560789    0.268055
  P      4.583774   -1.850896   -1.299015
  C      4.063325   -1.941531   -3.096125
  C      2.909134   -1.106358   -3.688665
  C      3.063441    0.385625   -3.404860
  C      2.946294   -1.328999   -5.204928
  C      1.562772   -1.599296   -3.159665
  C      6.441885   -1.443506   -1.483962
  C      7.056170   -1.184055   -0.106565
  C      7.242027   -2.525186   -2.208452
  C      6.544693   -0.137616   -2.281152
  C      4.377977   -3.677679   -0.755777
  C      2.894790   -3.829788   -0.402224
  C      4.721955   -4.731779   -1.814434
  C      5.208967   -3.962101    0.495273
  C      4.200943   -0.895058    1.854981
  O      4.540361   -1.146317    2.918994
  H      3.837646   -2.996068   -3.300599
  H      4.972334   -1.729834   -3.678915
  H      4.019619    0.773751   -3.789474
  H      3.021521    0.587187   -2.325670
  H      2.254895    0.954181   -3.889904
  H      3.889501   -0.960584   -5.639294
  H      2.119413   -0.794356   -5.697938
  H      2.853375   -2.398112   -5.456564
  H      1.491301   -1.487723   -2.069913
  H      1.404111   -2.661612   -3.407324
  H      0.735566   -1.025910   -3.606085
  H      7.030655   -2.064291    0.547351
  H      6.539172   -0.363037    0.408743
  H      8.112966   -0.895647   -0.231866
  H      7.325686   -3.445505   -1.614709
  H      8.266619   -2.159716   -2.387978
  H      6.812052   -2.781465   -3.188404
  H      5.953919    0.670479   -1.829263
  H      6.230635   -0.246585   -3.328894
  H      7.597410    0.188546   -2.292068
  H      2.240366   -3.569486   -1.247468
  H      2.617029   -3.193557    0.449101
  H      2.689051   -4.878596   -0.131665
  H      4.021485   -4.729284   -2.661460
  H      4.642278   -5.728194   -1.349552
  H      5.739315   -4.636271   -2.212199
  H      5.051428   -3.212702    1.281790
  H      6.284798   -4.018528    0.277334
  H      4.908583   -4.939017    0.908337

 Multiplicity           Mult            ....    1
 Number of Electrons    NEL             ....  192
 Basis Dimension        Dim             ....  474

ORBITAL ENERGIES
----------------

  NO   OCC          E(Eh)            E(eV)
   0   2.0000    -300.146384     -8167.3983
   1   2.0000     -77.229423     -2101.5194
   2   2.0000     -35.895446      -976.7647
   3   2.0000     -31.283863      -851.2772
   4   2.0000     -31.283633      -851.2709
   5   2.0000     -31.280443      -851.1841
   6   2.0000     -19.282256      -524.6968
   7   2.0000     -19.282038      -524.6909
   8   2.0000     -19.281233      -524.6690
   9   2.0000     -10.339453      -281.3508
  10   2.0000     -10.338922      -281.3364
  11   2.0000     -10.337897      -281.3085
  12   2.0000     -10.267469      -279.3920
  13   2.0000     -10.267105      -279.3821
  14   2.0000     -10.253697      -279.0173
  15   2.0000     -10.244130      -278.7569
  16   2.0000     -10.239876      -278.6412
  17   2.0000     -10.238103      -278.5929
  18   2.0000     -10.235961      -278.5346
  19   2.0000     -10.235913      -278.5334
  20   2.0000     -10.232307      -278.4352
  21   2.0000     -10.230715      -278.3919
  22   2.0000     -10.228175      -278.3228
  23   2.0000     -10.223987      -278.2088
  24   2.0000     -10.219571      -278.0887
  25   2.0000      -6.632805      -180.4878
  26   2.0000      -4.772864      -129.8762
  27   2.0000      -4.772822      -129.8751
  28   2.0000      -4.770631      -129.8155
  29   2.0000      -4.060893      -110.5025
  30   2.0000      -2.635974       -71.7285
  31   2.0000      -2.635476       -71.7150
  32   2.0000      -2.626772       -71.4781
  33   2.0000      -1.144670       -31.1481
  34   2.0000      -1.144269       -31.1372
  35   2.0000      -1.143610       -31.1192
  36   2.0000      -0.860453       -23.4141
  37   2.0000      -0.844260       -22.9735
  38   2.0000      -0.835729       -22.7413
  39   2.0000      -0.732329       -19.9277
  40   2.0000      -0.715750       -19.4765
  41   2.0000      -0.709552       -19.3079
  42   2.0000      -0.706055       -19.2127
  43   2.0000      -0.704160       -19.1612
  44   2.0000      -0.700450       -19.0602
  45   2.0000      -0.697232       -18.9726
  46   2.0000      -0.639033       -17.3890
  47   2.0000      -0.581562       -15.8251
  48   2.0000      -0.571066       -15.5395
  49   2.0000      -0.564264       -15.3544
  50   2.0000      -0.563448       -15.3322
  51   2.0000      -0.556094       -15.1321
  52   2.0000      -0.529573       -14.4104
  53   2.0000      -0.499779       -13.5997
  54   2.0000      -0.489813       -13.3285
  55   2.0000      -0.480027       -13.0622
  56   2.0000      -0.478408       -13.0181
  57   2.0000      -0.476763       -12.9734
  58   2.0000      -0.473729       -12.8908
  59   2.0000      -0.470541       -12.8041
  60   2.0000      -0.470076       -12.7914
  61   2.0000      -0.461912       -12.5693
  62   2.0000      -0.460080       -12.5194
  63   2.0000      -0.459408       -12.5011
  64   2.0000      -0.458070       -12.4647
  65   2.0000      -0.456111       -12.4114
  66   2.0000      -0.453117       -12.3299
  67   2.0000      -0.450092       -12.2476
  68   2.0000      -0.445183       -12.1141
  69   2.0000      -0.444304       -12.0901
  70   2.0000      -0.438568       -11.9340
  71   2.0000      -0.418285       -11.3821
  72   2.0000      -0.413366       -11.2483
  73   2.0000      -0.407121       -11.0783
  74   2.0000      -0.404570       -11.0089
  75   2.0000      -0.398625       -10.8471
  76   2.0000      -0.395798       -10.7702
  77   2.0000      -0.387720       -10.5504
  78   2.0000      -0.382616       -10.4115
  79   2.0000      -0.375476       -10.2172
  80   2.0000      -0.373315       -10.1584
  81   2.0000      -0.370248       -10.0750
  82   2.0000      -0.362334        -9.8596
  83   2.0000      -0.353408        -9.6167
  84   2.0000      -0.348927        -9.4948
  85   2.0000      -0.348217        -9.4755
  86   2.0000      -0.343434        -9.3453
  87   2.0000      -0.336592        -9.1591
  88   2.0000      -0.320685        -8.7263
  89   2.0000      -0.310541        -8.4503
  90   2.0000      -0.308389        -8.3917
  91   2.0000      -0.289155        -7.8683
  92   2.0000      -0.288486        -7.8501
  93   2.0000      -0.240064        -6.5325
  94   2.0000      -0.237463        -6.4617
  95   2.0000      -0.231484        -6.2990
  96   0.0000      -0.018778        -0.5110
  97   0.0000      -0.005691        -0.1549
  98   0.0000      -0.004179        -0.1137
  99   0.0000       0.009413         0.2561
 100   0.0000       0.011070         0.3012

MULLIKEN ATOMIC CHARGES
-----------------------
   0 O :   -0.036782
   1 C :    0.165426
   2 Ni:   -0.665649
   3 C :    0.174092
   4 O :   -0.036716
   5 P :    0.288340
   6 C :   -0.065544
   7 C :   -0.383839
   8 C :    0.030291
   9 C :    0.022732
  10 C :    0.002470
  11 C :   -0.509833
  12 C :    0.030335
  13 C :    0.037328
  14 C :    0.016712
  15 C :   -0.494283
  16 C :    0.024853
  17 C :    0.030867
  18 C :    0.009919
  19 C :    0.195097
  20 O :   -0.038616
  21 H :    0.039840
  22 H :    0.051276
  23 H :    0.027944
  24 H :    0.041259
  25 H :    0.029979
  26 H :    0.030860
  27 H :    0.035757
  28 H :    0.029177
  29 H :    0.052344
  30 H :    0.035713
  31 H :    0.034779
  32 H :    0.036783
  33 H :    0.058968
  34 H :    0.033277
  35 H :    0.047641
  36 H :    0.036569
  37 H :    0.043992
  38 H :    0.056499
  39 H :    0.039789
  40 H :    0.042222
  41 H :    0.037768
  42 H :    0.063717
  43 H :    0.035116
  44 H :    0.046922
  45 H :    0.036591
  46 H :    0.030370
  47 H :    0.058914
  48 H :    0.051561
  49 H :    0.037171
Sum of atomic charges:   -0.0000000

LOEWDIN ATOMIC CHARGES
----------------------
   0 O :    0.029267
   1 C :    0.272896
   2 Ni:   -1.563733
   3 C :    0.275531
   4 O :    0.030215
   5 P :    0.893860
   6 C :   -0.157790
   7 C :   -0.068739
   8 C :   -0.051282
   9 C :   -0.052127
  10 C :   -0.056269
  11 C :   -0.166304
  12 C :   -0.056132
  13 C :   -0.062898
  14 C :   -0.058943
  15 C :   -0.165886
  16 C :   -0.057533
  17 C :   -0.063315
  18 C :   -0.060725
  19 C :    0.275434
  20 O :    0.027758
  21 H :    0.029311
  22 H :    0.027854
  23 H :    0.024135
  24 H :    0.035447
  25 H :    0.028602
  26 H :    0.023788
  27 H :    0.028182
  28 H :    0.023651
  29 H :    0.028249
  30 H :    0.023224
  31 H :    0.030351
  32 H :    0.027604
  33 H :    0.038839
  34 H :    0.029506
  35 H :    0.024397
  36 H :    0.031517
  37 H :    0.025634
  38 H :    0.033201
  39 H :    0.022302
  40 H :    0.033036
  41 H :    0.028287
  42 H :    0.038367
  43 H :    0.029270
  44 H :    0.025280
  45 H :    0.032242
  46 H :    0.026509
  47 H :    0.031897
  48 H :    0.024169
  49 H :    0.031868

  Mayer bond orders larger than 0.100000
B(  0-O ,  1-C ) :   2.4086 B(  1-C ,  2-Ni) :   1.1066 B(  2-Ni,  3-C ) :   1.1156
B(  2-Ni,  5-P ) :   0.5763 B(  2-Ni, 19-C ) :   1.1271 B(  3-C ,  4-O ) :   2.4106
B(  5-P ,  6-C ) :   0.9920 B(  5-P , 11-C ) :   0.9569 B(  5-P , 15-C ) :   0.9477
B(  6-C ,  7-C ) :   0.9923 B(  6-C , 21-H ) :   0.9157 B(  6-C , 22-H ) :   0.9214
B(  7-C ,  8-C ) :   1.0315 B(  7-C ,  9-C ) :   1.0294 B(  7-C , 10-C ) :   1.0350
B(  8-C , 23-H ) :   0.9594 B(  8-C , 24-H ) :   0.9592 B(  8-C , 25-H ) :   0.9520
B(  9-C , 26-H ) :   0.9639 B(  9-C , 27-H ) :   0.9640 B(  9-C , 28-H ) :   0.9671
B( 10-C , 29-H ) :   0.9576 B( 10-C , 30-H ) :   0.9547 B( 10-C , 31-H ) :   0.9554
B( 11-C , 12-C ) :   1.0155 B( 11-C , 13-C ) :   1.0051 B( 11-C , 14-C ) :   1.0085
B( 12-C , 32-H ) :   0.9632 B( 12-C , 33-H ) :   0.9512 B( 12-C , 34-H ) :   0.9490
B( 13-C , 35-H ) :   0.9584 B( 13-C , 36-H ) :   0.9475 B( 13-C , 37-H ) :   0.9596
B( 14-C , 38-H ) :   0.9579 B( 14-C , 39-H ) :   0.9582 B( 14-C , 40-H ) :   0.9498
B( 15-C , 16-C ) :   1.0063 B( 15-C , 17-C ) :   1.0122 B( 15-C , 18-C ) :   1.0120
B( 16-C , 41-H ) :   0.9592 B( 16-C , 42-H ) :   0.9522 B( 16-C , 43-H ) :   0.9489
B( 17-C , 44-H ) :   0.9546 B( 17-C , 45-H ) :   0.9514 B( 17-C , 46-H ) :   0.9621
B( 18-C , 47-H ) :   0.9566 B( 18-C , 48-H ) :   0.9579 B( 18-C , 49-H ) :   0.9489
B( 19-C , 20-O ) :   2.4019

Dispersion correction           -0.070786886
FINAL SINGLE POINT ENERGY     -2700.588610387637

DIPOLE MOMENT
-------------
                                X             Y             Z
Electronic contribution:    -12.77536      23.47129      32.97187
Nuclear contribution   :     13.55889     -24.59517     -34.09744
                        -----------------------------------------
Total Dipole Moment    :      0.78352      -1.12388      -1.12557
                        -----------------------------------------
Magnitude (a.u.)       :      1.77311
Magnitude (Debye)      :      4.50689

Dispersion correction in the Hessian             ... done   (      0.5 sec)

VIBRATIONAL FREQUENCIES
-----------------------

Scaling factor for frequencies =  1.000000000  (already applied!)

   0:         0.00 cm**-1
   1:         0.00 cm**-1
   2:         0.00 cm**-1
   3:         0.00 cm**-1
   4:         0.00 cm**-1
   5:         0.00 cm**-1
   6:        20.55 cm**-1
   7:        32.34 cm**-1
   8:        58.25 cm**-1
   9:        60.81 cm**-1
  10:        65.11 cm**-1
  11:        71.12 cm**-1
  12:        72.96 cm**-1
  13:        87.35 cm**-1
  14:        96.41 cm**-1
  15:       100.00 cm**-1
  16:       106.77 cm**-1
  17:       131.95 cm**-1
  18:       153.56 cm**-1
  19:       167.40 cm**-1
  20:       181.33 cm**-1
  21:       192.02 cm**-1
  22:       215.21 cm**-1
  23:       217.76 cm**-1
  24:       224.97 cm**-1
  25:       234.30 cm**-1
  26:       257.41 cm**-1
  27:       261.80 cm**-1
  28:       275.38 cm**-1
  29:       279.39 cm**-1
  30:       285.85 cm**-1
  31:       290.20 cm**-1
  32:       296.26 cm**-1
  33:       301.59 cm**-1
  34:       304.82 cm**-1
  35:       316.24 cm**-1
  36:       326.10 cm**-1
  37:       346.25 cm**-1
  38:       348.74 cm**-1
  39:       362.21 cm**-1
  40:       372.68 cm**-1
  41:       387.56 cm**-1
  42:       393.40 cm**-1
  43:       397.36 cm**-1
  44:       406.51 cm**-1
  45:       417.52 cm**-1
  46:       435.57 cm**-1
  47:       437.36 cm**-1
  48:       454.94 cm**-1
  49:       458.84 cm**-1
  50:       468.35 cm**-1
  51:       469.58 cm**-1
  52:       490.59 cm**-1
  53:       511.85 cm**-1
  54:       514.77 cm**-1
  55:       516.89 cm**-1
  56:       582.67 cm**-1
  57:       598.14 cm**-1
  58:       713.41 cm**-1
  59:       787.46 cm**-1
  60:       797.14 cm**-1
  61:       837.82 cm**-1
  62:       838.74 cm**-1
  63:       931.67 cm**-1
  64:       945.31 cm**-1
  65:       946.84 cm**-1
  66:       947.15 cm**-1
  67:       949.83 cm**-1
  68:       950.71 cm**-1
  69:       952.77 cm**-1
  70:       954.60 cm**-1
  71:       957.07 cm**-1
  72:       963.26 cm**-1
  73:      1016.35 cm**-1
  74:      1026.04 cm**-1
  75:      1026.51 cm**-1
  76:      1030.62 cm**-1
  77:      1032.27 cm**-1
  78:      1036.27 cm**-1
  79:      1153.32 cm**-1
  80:      1193.75 cm**-1
  81:      1197.66 cm**-1
  82:      1203.15 cm**-1
  83:      1222.39 cm**-1
  84:      1232.35 cm**-1
  85:      1235.60 cm**-1
  86:      1241.70 cm**-1
  87:      1276.65 cm**-1
  88:      1296.80 cm**-1
  89:      1307.58 cm**-1
  90:      1372.92 cm**-1
  91:      1376.37 cm**-1
  92:      1377.00 cm**-1
  93:      1377.84 cm**-1
  94:      1380.61 cm**-1
  95:      1382.01 cm**-1
  96:      1399.50 cm**-1
  97:      1400.84 cm**-1
  98:      1407.45 cm**-1
  99:      1415.44 cm**-1
 100:      1443.75 cm**-1
 101:      1445.71 cm**-1
 102:      1445.95 cm**-1
 103:      1451.81 cm**-1
 104:      1451.95 cm**-1
 105:      1456.59 cm**-1
 106:      1457.99 cm**-1
 107:      1459.48 cm**-1
 108:      1461.20 cm**-1
 109:      1468.79 cm**-1
 110:      1471.56 cm**-1
 111:      1474.54 cm**-1
 112:      1477.16 cm**-1
 113:      1480.03 cm**-1
 114:      1482.91 cm**-1
 115:      1488.66 cm**-1
 116:      1491.81 cm**-1
 117:      1492.81 cm**-1
 118:      2121.67 cm**-1
 119:      2123.99 cm**-1
 120:      2184.61 cm**-1
 121:      3040.77 cm**-1
 122:      3050.65 cm**-1
 123:      3051.22 cm**-1
 124:      3051.67 cm**-1
 125:      3055.40 cm**-1
 126:      3057.09 cm**-1
 127:      3057.61 cm**-1
 128:      3060.71 cm**-1
 129:      3062.10 cm**-1
 130:      3095.49 cm**-1
 131:      3133.26 cm**-1
 132:      3134.67 cm**-1
 133:      3136.71 cm**-1
 134:      3140.13 cm**-1
 135:      3140.82 cm**-1
 136:      3142.90 cm**-1
 137:      3143.47 cm**-1
 138:      3144.71 cm**-1
 139:      3145.87 cm**-1
 140:      3151.35 cm**-1
 141:      3162.08 cm**-1
 142:      3166.74 cm**-1
 143:      3168.38 cm**-1
 144:      3172.96 cm**-1
 145:      3181.00 cm**-1
 146:      3182.67 cm**-1
 147:      3186.52 cm**-1
 148:      3191.93 cm**-1
 149:      3192.93 cm**-1

IR SPECTRUM
-----------

 Mode    freq (cm**-1)   T**2         TX         TY         TZ
-------------------------------------------------------------------
   6:        20.55    0.000741  ( -0.015268  -0.021609   0.006403)
   7:        32.34    0.009092  (  0.046549   0.082447  -0.011295)
   8:        58.25    0.034999  ( -0.162369   0.063358  -0.067976)
   9:        60.81    0.002310  ( -0.029667   0.015696  -0.034409)
  10:        65.11    0.041327  (  0.133839   0.141454  -0.058355)
  11:        71.12    0.036560  ( -0.065264   0.061198  -0.168984)
  12:        72.96    0.090043  ( -0.007923  -0.212192  -0.212027)
  13:        87.35    0.049521  (  0.133995  -0.175627  -0.026864)
  14:        96.41    0.106222  ( -0.252528   0.138531   0.152516)
  15:       100.00    0.215542  ( -0.327537   0.143979  -0.295857)
  16:       106.77    0.530516  (  0.271291  -0.104037   0.667902)
  17:       131.95    0.872379  ( -0.387878  -0.776530   0.344863)
  18:       153.56    0.182938  (  0.422693  -0.031426  -0.057282)
  19:       167.40    0.043100  ( -0.040795  -0.023119   0.202240)
  20:       181.33    0.331697  (  0.457381  -0.156086   0.313269)
  21:       192.02    0.028593  (  0.039703   0.025159   0.162430)
  22:       215.21    0.182065  (  0.016376   0.356226   0.234308)
  23:       217.76    0.162819  (  0.351676  -0.196189  -0.025563)
  24:       224.97    0.096062  ( -0.104568   0.094110   0.276171)
  25:       234.30    0.187320  (  0.061266   0.087393  -0.419439)
  26:       257.41    0.676843  (  0.343794  -0.706292  -0.244542)
  27:       261.80    0.573062  ( -0.681999  -0.257322  -0.204267)
  28:       275.38    0.041701  (  0.175677  -0.099034  -0.032103)
  29:       279.39    0.289624  (  0.230456  -0.388262  -0.292859)
  30:       285.85    0.055614  ( -0.008222  -0.180182   0.151924)
  31:       290.20    0.077746  (  0.006235  -0.131263  -0.245920)
  32:       296.26    0.080890  (  0.094458  -0.038848   0.265440)
  33:       301.59    0.260696  ( -0.271803   0.097480   0.421090)
  34:       304.82    0.251574  (  0.384046   0.322255   0.015327)
  35:       316.24    0.260977  ( -0.042617  -0.287935  -0.419827)
  36:       326.10    0.665669  ( -0.118725   0.241461   0.770240)
  37:       346.25    0.247544  (  0.189680  -0.458545  -0.036086)
  38:       348.74    0.693840  ( -0.684191   0.060095  -0.471287)
  39:       362.21    1.560095  (  0.880262   0.884514  -0.053550)
  40:       372.68    1.898579  ( -0.086793   0.545217  -1.262452)
  41:       387.56    0.434321  ( -0.454166   0.432066   0.203404)
  42:       393.40    0.936721  ( -0.401389   0.863964  -0.170807)
  43:       397.36    1.210431  ( -0.983459   0.132051  -0.475185)
  44:       406.51    0.830980  (  0.834515   0.111279   0.349545)
  45:       417.52    0.181536  ( -0.160841  -0.156986   0.361969)
  46:       435.57   14.102753  (  0.802611  -2.579266  -2.608823)
  47:       437.36    7.882677  ( -2.255589  -1.053303   1.298287)
  48:       454.94    3.544054  (  0.689375  -1.032334   1.415310)
  49:       458.84   13.144908  (  0.755952  -1.064689  -3.382289)
  50:       468.35   36.173542  ( -5.525691  -1.020664  -2.144418)
  51:       469.58   35.707870  (  0.363377   4.891674  -3.412822)
  52:       490.59    9.563476  (  2.486170  -1.817568   0.280858)
  53:       511.85    7.738860  (  1.342651  -2.076838  -1.273928)
  54:       514.77    3.929676  (  0.218009  -0.970903  -1.714495)
  55:       516.89    0.813577  ( -0.633974  -0.100873   0.633623)
  56:       582.67   11.658484  (  2.266807  -2.553442   0.001996)
  57:       598.14    5.893618  (  2.090214   1.070575  -0.615218)
  58:       713.41   20.233638  (  1.349939  -2.189598  -3.690117)
  59:       787.46   12.404765  ( -2.237273  -2.715138  -0.165526)
  60:       797.14    4.863153  (  0.414752   0.524853  -2.101348)
  61:       837.82   12.756121  ( -1.784476  -2.947973   0.938736)
  62:       838.74    7.429059  ( -2.649164   0.585988   0.260019)
  63:       931.67    2.188059  ( -0.203354   0.221058   1.448392)
  64:       945.31    1.074489  (  0.744416  -0.278576  -0.665379)
  65:       946.84    0.923815  ( -0.459346   0.812552  -0.229294)
  66:       947.15    0.765734  ( -0.184539  -0.361150  -0.775403)
  67:       949.83    0.274764  (  0.103215  -0.312393  -0.408071)
  68:       950.71    0.550283  ( -0.677407  -0.275787   0.123874)
  69:       952.77    0.699815  (  0.246135  -0.795859  -0.076432)
  70:       954.60    1.045762  ( -0.286047   0.169108  -0.967131)
  71:       957.07    1.269591  (  0.836549  -0.462093   0.596864)
  72:       963.26    0.223366  ( -0.161543   0.440736   0.054967)
  73:      1016.35    0.650618  (  0.390762   0.395295  -0.584521)
  74:      1026.04    0.582285  (  0.045710   0.754447  -0.104912)
  75:      1026.51    2.803165  ( -1.152017   0.718708  -0.979531)
  76:      1030.62    8.060417  (  0.141237   2.340870   1.600249)
  77:      1032.27    3.111605  (  1.656102   0.494991  -0.352013)
  78:      1036.27    3.437961  ( -0.794571   1.274451   1.087379)
  79:      1153.32    6.894652  ( -1.394547  -2.129103   0.645609)
  80:      1193.75   20.651145  ( -2.185509  -3.937999   0.605689)
  81:      1197.66   16.311664  ( -3.544538   1.933279   0.101730)
  82:      1203.15   15.734917  (  1.399929  -2.013788  -3.117655)
  83:      1222.39    0.526042  (  0.575022   0.392912   0.202515)
  84:      1232.35    0.123627  (  0.088907   0.276383   0.198329)
  85:      1235.60    0.340387  (  0.073735  -0.031884  -0.577870)
  86:      1241.70    0.175171  (  0.101686   0.269863  -0.303324)
  87:      1276.65   17.117302  ( -2.788284   2.045538  -2.271244)
  88:      1296.80    3.009707  ( -1.068121   1.221455  -0.613899)
  89:      1307.58    0.540897  (  0.005839   0.564956  -0.470836)
  90:      1372.92    2.448196  (  0.400538   1.424221  -0.509272)
  91:      1376.37    4.583749  ( -1.820576  -1.125623  -0.047183)
  92:      1377.00    4.815933  (  1.829069  -0.822443  -0.891082)
  93:      1377.84    7.974484  (  1.218448  -1.989690   1.590913)
  94:      1380.61   16.025905  ( -0.154691  -1.251521  -3.799430)
  95:      1382.01    4.675303  ( -1.510870  -1.529889  -0.228064)
  96:      1399.50   13.427092  ( -0.862559  -2.675992   2.349925)
  97:      1400.84   21.750042  ( -3.539241  -3.021850  -0.303703)
  98:      1407.45   11.944347  ( -2.618772   1.970229  -1.097533)
  99:      1415.44    0.627037  ( -0.231962   0.415465   0.632945)
 100:      1443.75    0.215788  ( -0.176689   0.353351  -0.244361)
 101:      1445.71    0.181020  ( -0.215266   0.063847  -0.361392)
 102:      1445.95    0.270884  ( -0.456975   0.175517   0.176781)
 103:      1451.81    0.248580  (  0.231032   0.308908   0.315880)
 104:      1451.95    2.279519  ( -0.037098   0.224704  -1.492532)
 105:      1456.59    1.756790  ( -0.892534   0.890812  -0.408200)
 106:      1457.99    0.288173  ( -0.082130  -0.128917   0.514595)
 107:      1459.48    1.231728  (  0.009248   1.027435  -0.419548)
 108:      1461.20    2.513869  (  0.936665   1.219375   0.386849)
 109:      1468.79    5.107446  ( -1.079233   0.165065   1.978751)
 110:      1471.56    0.222374  ( -0.443454   0.005967  -0.160274)
 111:      1474.54    6.942143  (  1.152945   1.590313  -1.756065)
 112:      1477.16    8.649193  (  1.367620   2.053796   1.600228)
 113:      1480.03    7.068313  (  0.984923  -2.060488  -1.361114)
 114:      1482.91    5.648688  (  0.847215  -1.358844   1.756263)
 115:      1488.66   18.671735  (  3.455230  -2.183809   1.401464)
 116:      1491.81   16.190637  ( -2.784182  -2.809380   0.739155)
 117:      1492.81    2.598650  (  1.023552   1.237304  -0.141664)
 118:      2121.67  896.114376  ( -2.254295  21.424056 -20.785629)
 119:      2123.99  899.394948  ( 27.507072   9.626340   7.077396)
 120:      2184.61  428.428610  ( -8.536088  12.403517  14.202696)
 121:      3040.77   21.062417  (  0.360944  -0.845048  -4.496446)
 122:      3050.65   21.124556  ( -3.238399   1.991562   2.582829)
 123:      3051.22   26.808168  ( -3.629513  -3.581866   0.897241)
 124:      3051.67   13.758941  ( -1.428696  -3.419869   0.149204)
 125:      3055.40   13.976379  ( -2.645005   1.077821  -2.412183)
 126:      3057.09    2.111635  ( -1.190630  -0.812322   0.184844)
 127:      3057.61   32.269327  ( -3.093977   1.523196  -4.514034)
 128:      3060.71   43.555606  ( -4.542381  -4.630669   1.216258)
 129:      3062.10   30.681084  ( -2.125807   5.092835   0.474404)
 130:      3095.49    8.204216  (  1.546473  -0.730851  -2.297497)
 131:      3133.26   10.202667  ( -2.091899  -2.392079   0.323393)
 132:      3134.67   16.280825  (  3.362007   2.175793   0.493618)
 133:      3136.71   17.381638  ( -0.106617  -4.094741   0.776766)
 134:      3140.13    3.709752  ( -0.435025  -1.824076   0.439605)
 135:      3140.82    6.721695  ( -1.106495   0.148656  -2.339929)
 136:      3142.90    3.583265  (  0.051254  -1.740037   0.743578)
 137:      3143.47   69.764702  ( -6.891627   3.386063  -3.287059)
 138:      3144.71   34.437045  ( -3.818484  -3.946194   2.069729)
 139:      3145.87    4.583949  (  0.366947   1.646575   1.318366)
 140:      3151.35    8.031832  (  2.618227  -0.479091  -0.973238)
 141:      3162.08    3.717092  ( -1.380591  -0.888431  -1.010816)
 142:      3166.74    3.096534  ( -0.411686  -0.643046   1.585415)
 143:      3168.38   11.806369  ( -0.120299   1.992228  -2.796949)
 144:      3172.96    6.451867  ( -0.472796  -1.042434  -2.267523)
 145:      3181.00    6.544196  ( -0.669460   1.033524   2.242286)
 146:      3182.67    7.445152  ( -0.954105  -0.058658  -2.555659)
 147:      3186.52    5.160213  (  1.481079  -1.080170  -1.341585)
 148:      3191.93    4.855135  ( -0.129098   2.052322  -0.791482)
 149:      3192.93    9.463007  (  2.878197  -1.023349   0.362971)

--------------------------
THERMOCHEMISTRY AT 298.15K
--------------------------

Temperature         ... 298.15 K
Pressure            ... 1.00 atm
Total Mass          ... 359.08 AMU

Throughout the following assumptions are being made:
  (1) The electronic state is orbitally nondegenerate
  (2) There are no thermally accessible electronically excited states
  (3) Hindered rotations indicated by low frequency modes are not
      treated as such but are treated as vibrations and this may
      cause some error
  (4) All equations used are the standard statistical mechanics
      equations for an ideal gas
  (5) All vibrations are strictly harmonic

freq.      20.55  E(vib)   ...       0.56
freq.      32.34  E(vib)   ...       0.55
freq.      58.25  E(vib)   ...       0.51
freq.      60.81  E(vib)   ...       0.51
freq.      65.11  E(vib)   ...       0.50
freq.      71.12  E(vib)   ...       0.50
freq.      72.96  E(vib)   ...       0.49
freq.      87.35  E(vib)   ...       0.48
freq.      96.41  E(vib)   ...       0.47
freq.     100.00  E(vib)   ...       0.46
freq.     106.77  E(vib)   ...       0.45
freq.     131.95  E(vib)   ...       0.42
freq.     153.56  E(vib)   ...       0.40
freq.     167.40  E(vib)   ...       0.39
freq.     181.33  E(vib)   ...       0.37
freq.     192.02  E(vib)   ...       0.36
freq.     215.21  E(vib)   ...       0.34
freq.     217.76  E(vib)   ...       0.33
freq.     224.97  E(vib)   ...       0.33
freq.     234.30  E(vib)   ...       0.32
freq.     257.41  E(vib)   ...       0.30
freq.     261.80  E(vib)   ...       0.30
freq.     275.38  E(vib)   ...       0.28
freq.     279.39  E(vib)   ...       0.28
freq.     285.85  E(vib)   ...       0.27
freq.     290.20  E(vib)   ...       0.27
freq.     296.26  E(vib)   ...       0.27
freq.     301.59  E(vib)   ...       0.26
freq.     304.82  E(vib)   ...       0.26
freq.     316.24  E(vib)   ...       0.25
freq.     326.10  E(vib)   ...       0.24
freq.     346.25  E(vib)   ...       0.23
freq.     348.74  E(vib)   ...       0.23
freq.     362.21  E(vib)   ...       0.22
freq.     372.68  E(vib)   ...       0.21
freq.     387.56  E(vib)   ...       0.20
freq.     393.40  E(vib)   ...       0.20
freq.     397.36  E(vib)   ...       0.20
freq.     406.51  E(vib)   ...       0.19
freq.     417.52  E(vib)   ...       0.18
freq.     435.57  E(vib)   ...       0.17
freq.     437.36  E(vib)   ...       0.17
freq.     454.94  E(vib)   ...       0.16
freq.     458.84  E(vib)   ...       0.16
freq.     468.35  E(vib)   ...       0.16
freq.     469.58  E(vib)   ...       0.16
freq.     490.59  E(vib)   ...       0.15
freq.     511.85  E(vib)   ...       0.14
freq.     514.77  E(vib)   ...       0.13
freq.     516.89  E(vib)   ...       0.13
freq.     582.67  E(vib)   ...       0.11
freq.     598.14  E(vib)   ...       0.10
freq.     713.41  E(vib)   ...       0.07
freq.     787.46  E(vib)   ...       0.05
freq.     797.14  E(vib)   ...       0.05
freq.     837.82  E(vib)   ...       0.04
freq.     838.74  E(vib)   ...       0.04
freq.     931.67  E(vib)   ...       0.03
freq.     945.31  E(vib)   ...       0.03
freq.     946.84  E(vib)   ...       0.03
freq.     947.15  E(vib)   ...       0.03
freq.     949.83  E(vib)   ...       0.03
freq.     950.71  E(vib)   ...       0.03
freq.     952.77  E(vib)   ...       0.03
freq.     954.60  E(vib)   ...       0.03
freq.     957.07  E(vib)   ...       0.03
freq.     963.26  E(vib)   ...       0.03
freq.    1016.35  E(vib)   ...       0.02
freq.    1026.04  E(vib)   ...       0.02
freq.    1026.51  E(vib)   ...       0.02
freq.    1030.62  E(vib)   ...       0.02
freq.    1032.27  E(vib)   ...       0.02
freq.    1036.27  E(vib)   ...       0.02
freq.    1153.32  E(vib)   ...       0.01
freq.    1193.75  E(vib)   ...       0.01
freq.    1197.66  E(vib)   ...       0.01
freq.    1203.15  E(vib)   ...       0.01
freq.    1222.39  E(vib)   ...       0.01
freq.    1232.35  E(vib)   ...       0.01
freq.    1235.60  E(vib)   ...       0.01
freq.    1241.70  E(vib)   ...       0.01
freq.    1276.65  E(vib)   ...       0.01
freq.    1296.80  E(vib)   ...       0.01
freq.    1307.58  E(vib)   ...       0.01
freq.    1372.92  E(vib)   ...       0.01
freq.    1376.37  E(vib)   ...       0.01
freq.    1377.00  E(vib)   ...       0.01
freq.    1377.84  E(vib)   ...       0.01
freq.    1380.61  E(vib)   ...       0.01
freq.    1382.01  E(vib)   ...       0.01
freq.    1399.50  E(vib)   ...       0.00
freq.    1400.84  E(vib)   ...       0.00
freq.    1407.45  E(vib)   ...       0.00
freq.    1415.44  E(vib)   ...       0.00
freq.    1443.75  E(vib)   ...       0.00
freq.    1445.71  E(vib)   ...       0.00
freq.    1445.95  E(vib)   ...       0.00
freq.    1451.81  E(vib)   ...       0.00
freq.    1451.95  E(vib)   ...       0.00
freq.    1456.59  E(vib)   ...       0.00
freq.    1457.99  E(vib)   ...       0.00
freq.    1459.48  E(vib)   ...       0.00
freq.    1461.20  E(vib)   ...       0.00
freq.    1468.79  E(vib)   ...       0.00
freq.    1471.56  E(vib)   ...       0.00
freq.    1474.54  E(vib)   ...       0.00
freq.    1477.16  E(vib)   ...       0.00
freq.    1480.03  E(vib)   ...       0.00
freq.    1482.91  E(vib)   ...       0.00
freq.    1488.66  E(vib)   ...       0.00
freq.    1491.81  E(vib)   ...       0.00
freq.    1492.81  E(vib)   ...       0.00
freq.    2121.67  E(vib)   ...       0.00
freq.    2123.99  E(vib)   ...       0.00
freq.    2184.61  E(vib)   ...       0.00
freq.    3040.77  E(vib)   ...       0.00
freq.    3050.65  E(vib)   ...       0.00
freq.    3051.22  E(vib)   ...       0.00
freq.    3051.67  E(vib)   ...       0.00
freq.    3055.40  E(vib)   ...       0.00
freq.    3057.09  E(vib)   ...       0.00
freq.    3057.61  E(vib)   ...       0.00
freq.    3060.71  E(vib)   ...       0.00
freq.    3062.10  E(vib)   ...       0.00
freq.    3095.49  E(vib)   ...       0.00
freq.    3133.26  E(vib)   ...       0.00
freq.    3134.67  E(vib)   ...       0.00
freq.    3136.71  E(vib)   ...       0.00
freq.    3140.13  E(vib)   ...       0.00
freq.    3140.82  E(vib)   ...       0.00
freq.    3142.90  E(vib)   ...       0.00
freq.    3143.47  E(vib)   ...       0.00
freq.    3144.71  E(vib)   ...       0.00
freq.    3145.87  E(vib)   ...       0.00
freq.    3151.35  E(vib)   ...       0.00
freq.    3162.08  E(vib)   ...       0.00
freq.    3166.74  E(vib)   ...       0.00
freq.    3168.38  E(vib)   ...       0.00
freq.    3172.96  E(vib)   ...       0.00
freq.    3181.00  E(vib)   ...       0.00
freq.    3182.67  E(vib)   ...       0.00
freq.    3186.52  E(vib)   ...       0.00
freq.    3191.93  E(vib)   ...       0.00
freq.    3192.93  E(vib)   ...       0.00

Rotational constants in cm-1:     0.009161     0.008381     0.007277

                             ****ORCA TERMINATED NORMALLY****
TOTAL RUN TIME: 0 days 2 hours 19 minutes 29 seconds 307 msec
