                         Program Version 4.2.0 -  RELEASE  -
|  1> ! PBE0 def2-SVP RIJDX D3BJ opt freq
|  2> %pal nprocs 10 end
|  3> %maxcore 3036
|  4>
|  5> %basis
|  6>   newgto Ni "def2-TZVP" end
|  7> end
|  8>
|  9> *xyzfile 0 1 xtbopt.xyz
| 10>
| 11>                          ****END OF INPUT****
 Total Charge           Charge          ....    0
 Multiplicity           Mult            ....    1
 Number of Electrons    NEL             ....  198
Dispersion correction           -0.074961785
FINAL SINGLE POINT ENERGY     -2738.619879806369
Dispersion correction            ... done
Dispersion correction           -0.074595373
FINAL SINGLE POINT ENERGY     -2738.623863093389
Dispersion correction            ... done
Dispersion correction           -0.074350764
FINAL SINGLE POINT ENERGY     -2738.624584800556
Dispersion correction            ... done
FINAL SINGLE POINT ENERGY     -2738.625330723615
FINAL SINGLE POINT ENERGY     -2738.625576578590
FINAL SINGLE POINT ENERGY     -2738.625991943198
FINAL SINGLE POINT ENERGY     -2738.626378430935
FINAL SINGLE POINT ENERGY     -2738.626892358907
FINAL SINGLE POINT ENERGY     -2738.626265772979
FINAL SINGLE POINT ENERGY     -2738.627240699945
FINAL SINGLE POINT ENERGY     -2738.627370985159
FINAL SINGLE POINT ENERGY     -2738.627413266694
FINAL SINGLE POINT ENERGY     -2738.627452919639
FINAL SINGLE POINT ENERGY     -2738.627482168150
FINAL SINGLE POINT ENERGY     -2738.627493165715
FINAL SINGLE POINT ENERGY     -2738.627507864325
FINAL SINGLE POINT ENERGY     -2738.627511922490
Dispersion correction           -0.074897639
FINAL SINGLE POINT ENERGY     -2738.627514015815
Dispersion correction            ... done
Dispersion correction           -0.074897789
FINAL SINGLE POINT ENERGY     -2738.627515711532
Dispersion correction            ... done
                    ***********************HURRAY********************

CARTESIAN COORDINATES (ANGSTROEM)
---------------------------------
  O      5.490421    2.670214    0.922659
  C      5.032470    1.653819    0.665409
  Ni     4.299160    0.048345    0.309889
  C      2.511620    0.141331    0.443713
  O      1.373822    0.207632    0.554144
  P      4.846120   -0.576783   -1.815663
  C      4.406216    0.545308   -3.283074
  C      3.012146    0.498110   -3.926735
  C      1.920532    1.227673   -3.155260
  C      2.307142    2.683188   -2.928814
  C      3.658137    2.768810   -2.233683
  C      4.747310    2.019165   -2.995189
  C      6.771081   -0.673117   -2.024426
  C      7.309486   -2.005171   -1.497829
  C      7.262169   -0.490268   -3.463146
  C      7.407974    0.416647   -1.154031
  C      4.086047   -2.275719   -2.269736
  C      2.566690   -2.157763   -2.067814
  C      4.418942   -2.708672   -3.698770
  C      4.514293   -3.386167   -1.300864
  C      5.004031   -1.181669    1.410274
  O      5.454652   -1.944477    2.136420
  H      5.098081    0.193264   -4.060492
  H      2.710998   -0.527477   -4.174311
  H      3.123506    1.004761   -4.903472
  H      1.744781    0.742417   -2.180798
  H      0.970603    1.160578   -3.710184
  H      1.537572    3.200848   -2.334222
  H      2.353596    3.203222   -3.903145
  H      3.559948    2.335896   -1.226832
  H      3.963612    3.818104   -2.096168
  H      5.704209    2.109331   -2.464091
  H      4.901173    2.511951   -3.972726
  H      7.092330   -2.842219   -2.173598
  H      6.924942   -2.244956   -0.496723
  H      8.406387   -1.929108   -1.417572
  H      6.797498   -1.193953   -4.168141
  H      8.350050   -0.670624   -3.491371
  H      7.100135    0.531632   -3.834265
  H      7.199088    0.247973   -0.089228
  H      7.070474    1.430808   -1.403168
  H      8.501318    0.389099   -1.297192
  H      2.094417   -1.326191   -2.596556
  H      2.326840   -2.051417   -1.001275
  H      2.093520   -3.088103   -2.422584
  H      4.101221   -1.981231   -4.458638
  H      3.908559   -3.660216   -3.923125
  H      5.496916   -2.883431   -3.826463
  H      4.448258   -3.060451   -0.253847
  H      5.521999   -3.769045   -1.484538
  H      3.819356   -4.232736   -1.423691

 Multiplicity           Mult            ....    1
 Number of Electrons    NEL             ....  198
 Basis Dimension        Dim             ....  488

ORBITAL ENERGIES
----------------

  NO   OCC          E(Eh)            E(eV)
   0   2.0000    -300.145284     -8167.3684
   1   2.0000     -77.230358     -2101.5449
   2   2.0000     -35.894929      -976.7507
   3   2.0000     -31.283532      -851.2682
   4   2.0000     -31.282997      -851.2536
   5   2.0000     -31.279797      -851.1665
   6   2.0000     -19.280505      -524.6492
   7   2.0000     -19.280099      -524.6382
   8   2.0000     -19.279841      -524.6312
   9   2.0000     -10.337428      -281.2957
  10   2.0000     -10.337286      -281.2918
  11   2.0000     -10.336549      -281.2718
  12   2.0000     -10.268752      -279.4269
  13   2.0000     -10.267775      -279.4004
  14   2.0000     -10.254203      -279.0311
  15   2.0000     -10.240569      -278.6600
  16   2.0000     -10.239895      -278.6417
  17   2.0000     -10.239372      -278.6275
  18   2.0000     -10.238801      -278.6119
  19   2.0000     -10.236100      -278.5385
  20   2.0000     -10.231460      -278.4122
  21   2.0000     -10.230624      -278.3894
  22   2.0000     -10.230004      -278.3726
  23   2.0000     -10.229922      -278.3703
  24   2.0000     -10.227279      -278.2984
  25   2.0000     -10.224695      -278.2281
  26   2.0000      -6.633138      -180.4968
  27   2.0000      -4.773195      -129.8852
  28   2.0000      -4.773149      -129.8840
  29   2.0000      -4.771047      -129.8268
  30   2.0000      -4.060145      -110.4822
  31   2.0000      -2.635751       -71.7224
  32   2.0000      -2.634481       -71.6879
  33   2.0000      -2.625599       -71.4462
  34   2.0000      -1.143032       -31.1035
  35   2.0000      -1.142065       -31.0772
  36   2.0000      -1.141864       -31.0717
  37   2.0000      -0.865826       -23.5603
  38   2.0000      -0.847399       -23.0589
  39   2.0000      -0.834957       -22.7203
  40   2.0000      -0.771122       -20.9833
  41   2.0000      -0.763074       -20.7643
  42   2.0000      -0.715878       -19.4800
  43   2.0000      -0.711427       -19.3589
  44   2.0000      -0.707229       -19.2447
  45   2.0000      -0.697211       -18.9721
  46   2.0000      -0.670421       -18.2431
  47   2.0000      -0.626331       -17.0433
  48   2.0000      -0.614565       -16.7232
  49   2.0000      -0.579984       -15.7822
  50   2.0000      -0.570370       -15.5205
  51   2.0000      -0.564783       -15.3685
  52   2.0000      -0.562229       -15.2990
  53   2.0000      -0.561385       -15.2761
  54   2.0000      -0.532625       -14.4935
  55   2.0000      -0.506801       -13.7907
  56   2.0000      -0.491630       -13.3779
  57   2.0000      -0.485599       -13.2138
  58   2.0000      -0.480971       -13.0879
  59   2.0000      -0.474244       -12.9048
  60   2.0000      -0.472110       -12.8468
  61   2.0000      -0.469129       -12.7657
  62   2.0000      -0.467356       -12.7174
  63   2.0000      -0.464015       -12.6265
  64   2.0000      -0.461952       -12.5704
  65   2.0000      -0.458604       -12.4793
  66   2.0000      -0.457935       -12.4610
  67   2.0000      -0.454064       -12.3557
  68   2.0000      -0.453829       -12.3493
  69   2.0000      -0.448667       -12.2089
  70   2.0000      -0.444724       -12.1016
  71   2.0000      -0.443711       -12.0740
  72   2.0000      -0.438868       -11.9422
  73   2.0000      -0.423066       -11.5122
  74   2.0000      -0.417485       -11.3603
  75   2.0000      -0.408619       -11.1191
  76   2.0000      -0.404250       -11.0002
  77   2.0000      -0.398937       -10.8556
  78   2.0000      -0.396697       -10.7947
  79   2.0000      -0.393207       -10.6997
  80   2.0000      -0.391289       -10.6475
  81   2.0000      -0.384142       -10.4530
  82   2.0000      -0.378077       -10.2880
  83   2.0000      -0.365854        -9.9554
  84   2.0000      -0.361968        -9.8496
  85   2.0000      -0.354172        -9.6375
  86   2.0000      -0.350664        -9.5420
  87   2.0000      -0.345980        -9.4146
  88   2.0000      -0.336518        -9.1571
  89   2.0000      -0.322925        -8.7872
  90   2.0000      -0.318584        -8.6691
  91   2.0000      -0.313338        -8.5264
  92   2.0000      -0.306695        -8.3456
  93   2.0000      -0.306331        -8.3357
  94   2.0000      -0.287961        -7.8358
  95   2.0000      -0.286951        -7.8083
  96   2.0000      -0.239616        -6.5203
  97   2.0000      -0.237454        -6.4615
  98   2.0000      -0.226755        -6.1703
  99   0.0000      -0.013772        -0.3747
 100   0.0000      -0.002982        -0.0811
 101   0.0000      -0.001239        -0.0337
 102   0.0000       0.007922         0.2156
 103   0.0000       0.009109         0.2479

MULLIKEN ATOMIC CHARGES
-----------------------
   0 O :   -0.033993
   1 C :    0.140219
   2 Ni:   -0.650388
   3 C :    0.174094
   4 O :   -0.039198
   5 P :    0.318294
   6 C :   -0.245657
   7 C :   -0.021398
   8 C :   -0.056655
   9 C :   -0.039056
  10 C :   -0.047498
  11 C :   -0.003706
  12 C :   -0.500687
  13 C :    0.018546
  14 C :    0.017395
  15 C :    0.024730
  16 C :   -0.481081
  17 C :    0.012935
  18 C :    0.028210
  19 C :    0.016729
  20 C :    0.185665
  21 O :   -0.040447
  22 H :    0.053826
  23 H :    0.035501
  24 H :    0.027552
  25 H :    0.045751
  26 H :    0.034825
  27 H :    0.039040
  28 H :    0.021087
  29 H :    0.050894
  30 H :    0.035979
  31 H :    0.026489
  32 H :    0.029226
  33 H :    0.045330
  34 H :    0.057249
  35 H :    0.040586
  36 H :    0.045058
  37 H :    0.040688
  38 H :    0.049420
  39 H :    0.066813
  40 H :    0.042450
  41 H :    0.037523
  42 H :    0.049860
  43 H :    0.058469
  44 H :    0.035618
  45 H :    0.047695
  46 H :    0.037411
  47 H :    0.041396
  48 H :    0.056559
  49 H :    0.034118
  50 H :    0.036535
Sum of atomic charges:   -0.0000000

LOEWDIN ATOMIC CHARGES
----------------------
   0 O :    0.028648
   1 C :    0.274184
   2 Ni:   -1.566236
   3 C :    0.273570
   4 O :    0.026082
   5 P :    0.901210
   6 C :   -0.155859
   7 C :   -0.048511
   8 C :   -0.050510
   9 C :   -0.044428
  10 C :   -0.042765
  11 C :   -0.043130
  12 C :   -0.161743
  13 C :   -0.058817
  14 C :   -0.066812
  15 C :   -0.053623
  16 C :   -0.164064
  17 C :   -0.057298
  18 C :   -0.065262
  19 C :   -0.057514
  20 C :    0.269970
  21 O :    0.024014
  22 H :    0.028047
  23 H :    0.020037
  24 H :    0.031501
  25 H :    0.025314
  26 H :    0.029963
  27 H :    0.030210
  28 H :    0.021532
  29 H :    0.036279
  30 H :    0.030465
  31 H :    0.021642
  32 H :    0.028800
  33 H :    0.022463
  34 H :    0.032491
  35 H :    0.031774
  36 H :    0.025838
  37 H :    0.032645
  38 H :    0.029256
  39 H :    0.039995
  40 H :    0.023687
  41 H :    0.029334
  42 H :    0.028232
  43 H :    0.036335
  44 H :    0.030200
  45 H :    0.026566
  46 H :    0.031657
  47 H :    0.024343
  48 H :    0.034589
  49 H :    0.024250
  50 H :    0.031450

  Mayer bond orders larger than 0.100000
B(  0-O ,  1-C ) :   2.4215 B(  1-C ,  2-Ni) :   1.0805 B(  2-Ni,  3-C ) :   1.1244
B(  2-Ni,  5-P ) :   0.5962 B(  2-Ni, 20-C ) :   1.1353 B(  3-C ,  4-O ) :   2.4005
B(  5-P ,  6-C ) :   0.9778 B(  5-P , 12-C ) :   0.9271 B(  5-P , 16-C ) :   0.9479
B(  6-C ,  7-C ) :   1.0432 B(  6-C , 11-C ) :   1.0297 B(  6-C , 22-H ) :   0.8867
B(  7-C ,  8-C ) :   1.0800 B(  7-C , 23-H ) :   0.9331 B(  7-C , 24-H ) :   0.9217
B(  8-C ,  9-C ) :   1.0758 B(  8-C , 25-H ) :   0.9271 B(  8-C , 26-H ) :   0.9387
B(  9-C , 10-C ) :   1.0829 B(  9-C , 27-H ) :   0.9423 B(  9-C , 28-H ) :   0.9392
B( 10-C , 11-C ) :   1.0783 B( 10-C , 29-H ) :   0.9208 B( 10-C , 30-H ) :   0.9330
B( 11-C , 31-H ) :   0.9370 B( 11-C , 32-H ) :   0.9264 B( 12-C , 13-C ) :   1.0199
B( 12-C , 14-C ) :   1.0181 B( 12-C , 15-C ) :   1.0091 B( 13-C , 33-H ) :   0.9576
B( 13-C , 34-H ) :   0.9561 B( 13-C , 35-H ) :   0.9501 B( 14-C , 36-H ) :   0.9569
B( 14-C , 37-H ) :   0.9478 B( 14-C , 38-H ) :   0.9553 B( 15-C , 39-H ) :   0.9503
B( 15-C , 40-H ) :   0.9605 B( 15-C , 41-H ) :   0.9456 B( 16-C , 17-C ) :   1.0014
B( 16-C , 18-C ) :   1.0023 B( 16-C , 19-C ) :   1.0096 B( 17-C , 42-H ) :   0.9595
B( 17-C , 43-H ) :   0.9569 B( 17-C , 44-H ) :   0.9482 B( 18-C , 45-H ) :   0.9597
B( 18-C , 46-H ) :   0.9502 B( 18-C , 47-H ) :   0.9602 B( 19-C , 48-H ) :   0.9581
B( 19-C , 49-H ) :   0.9617 B( 19-C , 50-H ) :   0.9511 B( 20-C , 21-O ) :   2.4005

Dispersion correction           -0.074902429
FINAL SINGLE POINT ENERGY     -2738.627516495642

DIPOLE MOMENT
-------------
                                X             Y             Z
Electronic contribution:     -6.27064       7.86975      38.14715
Nuclear contribution   :      6.73037      -8.31549     -39.83445
                        -----------------------------------------
Total Dipole Moment    :      0.45973      -0.44575      -1.68729
                        -----------------------------------------
Magnitude (a.u.)       :      1.80471
Magnitude (Debye)      :      4.58722

Dispersion correction in the Hessian             ... done   (      0.4 sec)

VIBRATIONAL FREQUENCIES
-----------------------

Scaling factor for frequencies =  1.000000000  (already applied!)

   0:         0.00 cm**-1
   1:         0.00 cm**-1
   2:         0.00 cm**-1
   3:         0.00 cm**-1
   4:         0.00 cm**-1
   5:         0.00 cm**-1
   6:        27.15 cm**-1
   7:        39.94 cm**-1
   8:        60.76 cm**-1
   9:        66.43 cm**-1
  10:        68.80 cm**-1
  11:        78.35 cm**-1
  12:        79.64 cm**-1
  13:        85.50 cm**-1
  14:        93.66 cm**-1
  15:       102.36 cm**-1
  16:       120.77 cm**-1
  17:       147.58 cm**-1
  18:       151.71 cm**-1
  19:       157.49 cm**-1
  20:       179.44 cm**-1
  21:       195.16 cm**-1
  22:       222.21 cm**-1
  23:       233.13 cm**-1
  24:       234.67 cm**-1
  25:       246.56 cm**-1
  26:       264.89 cm**-1
  27:       270.30 cm**-1
  28:       283.64 cm**-1
  29:       291.62 cm**-1
  30:       299.83 cm**-1
  31:       305.10 cm**-1
  32:       317.83 cm**-1
  33:       330.83 cm**-1
  34:       344.98 cm**-1
  35:       363.64 cm**-1
  36:       367.91 cm**-1
  37:       376.31 cm**-1
  38:       379.72 cm**-1
  39:       394.73 cm**-1
  40:       410.41 cm**-1
  41:       423.82 cm**-1
  42:       433.27 cm**-1
  43:       435.31 cm**-1
  44:       449.84 cm**-1
  45:       468.47 cm**-1
  46:       472.36 cm**-1
  47:       476.09 cm**-1
  48:       487.31 cm**-1
  49:       496.58 cm**-1
  50:       509.06 cm**-1
  51:       514.08 cm**-1
  52:       517.43 cm**-1
  53:       566.63 cm**-1
  54:       586.84 cm**-1
  55:       607.05 cm**-1
  56:       682.33 cm**-1
  57:       787.05 cm**-1
  58:       834.17 cm**-1
  59:       836.57 cm**-1
  60:       839.53 cm**-1
  61:       865.82 cm**-1
  62:       898.37 cm**-1
  63:       909.69 cm**-1
  64:       935.35 cm**-1
  65:       942.35 cm**-1
  66:       946.07 cm**-1
  67:       948.14 cm**-1
  68:       954.05 cm**-1
  69:       955.79 cm**-1
  70:       957.55 cm**-1
  71:      1015.37 cm**-1
  72:      1026.01 cm**-1
  73:      1026.50 cm**-1
  74:      1030.56 cm**-1
  75:      1032.92 cm**-1
  76:      1062.29 cm**-1
  77:      1070.16 cm**-1
  78:      1110.43 cm**-1
  79:      1120.05 cm**-1
  80:      1139.04 cm**-1
  81:      1164.79 cm**-1
  82:      1189.14 cm**-1
  83:      1194.06 cm**-1
  84:      1214.09 cm**-1
  85:      1228.99 cm**-1
  86:      1234.60 cm**-1
  87:      1236.90 cm**-1
  88:      1238.93 cm**-1
  89:      1287.43 cm**-1
  90:      1295.94 cm**-1
  91:      1304.16 cm**-1
  92:      1318.24 cm**-1
  93:      1338.21 cm**-1
  94:      1369.16 cm**-1
  95:      1373.97 cm**-1
  96:      1375.62 cm**-1
  97:      1376.41 cm**-1
  98:      1379.58 cm**-1
  99:      1382.83 cm**-1
 100:      1390.64 cm**-1
 101:      1394.52 cm**-1
 102:      1399.41 cm**-1
 103:      1408.21 cm**-1
 104:      1438.90 cm**-1
 105:      1444.22 cm**-1
 106:      1448.72 cm**-1
 107:      1451.49 cm**-1
 108:      1455.38 cm**-1
 109:      1456.88 cm**-1
 110:      1457.58 cm**-1
 111:      1459.26 cm**-1
 112:      1461.91 cm**-1
 113:      1468.75 cm**-1
 114:      1469.92 cm**-1
 115:      1475.64 cm**-1
 116:      1475.70 cm**-1
 117:      1481.67 cm**-1
 118:      1486.07 cm**-1
 119:      1496.81 cm**-1
 120:      1499.93 cm**-1
 121:      2117.62 cm**-1
 122:      2123.37 cm**-1
 123:      2182.35 cm**-1
 124:      3035.37 cm**-1
 125:      3039.99 cm**-1
 126:      3042.11 cm**-1
 127:      3050.06 cm**-1
 128:      3052.86 cm**-1
 129:      3053.33 cm**-1
 130:      3056.88 cm**-1
 131:      3064.47 cm**-1
 132:      3065.99 cm**-1
 133:      3068.20 cm**-1
 134:      3076.30 cm**-1
 135:      3108.43 cm**-1
 136:      3116.32 cm**-1
 137:      3120.13 cm**-1
 138:      3134.54 cm**-1
 139:      3135.87 cm**-1
 140:      3139.48 cm**-1
 141:      3141.68 cm**-1
 142:      3144.06 cm**-1
 143:      3148.28 cm**-1
 144:      3152.91 cm**-1
 145:      3156.07 cm**-1
 146:      3158.31 cm**-1
 147:      3167.50 cm**-1
 148:      3170.96 cm**-1
 149:      3181.45 cm**-1
 150:      3186.10 cm**-1
 151:      3219.24 cm**-1
 152:      3233.45 cm**-1

IR SPECTRUM
-----------

 Mode    freq (cm**-1)   T**2         TX         TY         TZ
-------------------------------------------------------------------
   6:        27.15    0.005997  ( -0.001388   0.031620  -0.070676)
   7:        39.94    0.018306  (  0.117378  -0.057305   0.035284)
   8:        60.76    0.027087  (  0.091142   0.123902  -0.058554)
   9:        66.43    0.057341  ( -0.112452  -0.167774   0.128638)
  10:        68.80    0.019421  (  0.076728   0.006326   0.116163)
  11:        78.35    0.069537  ( -0.164656   0.197317   0.059090)
  12:        79.64    0.076645  ( -0.081339   0.139358   0.224964)
  13:        85.50    0.005948  ( -0.042489   0.007302   0.063951)
  14:        93.66    0.507070  (  0.371448  -0.293884   0.531722)
  15:       102.36    0.348896  ( -0.050970   0.561185  -0.177113)
  16:       120.77    0.359878  ( -0.599865  -0.006038   0.001859)
  17:       147.58    0.382276  (  0.275978   0.552094   0.036127)
  18:       151.71    0.039909  (  0.176076  -0.037007  -0.086812)
  19:       157.49    0.093709  ( -0.216122   0.193781  -0.097206)
  20:       179.44    0.210017  (  0.400970  -0.212567   0.063681)
  21:       195.16    0.427538  ( -0.496517   0.401722  -0.140101)
  22:       222.21    0.246105  ( -0.395710  -0.207008   0.216025)
  23:       233.13    0.371339  ( -0.000204  -0.184608  -0.580740)
  24:       234.67    0.085655  ( -0.106308  -0.237258   0.134395)
  25:       246.56    0.608630  (  0.122318   0.242064   0.731487)
  26:       264.89    0.049896  (  0.030264  -0.194087  -0.106348)
  27:       270.30    0.438863  ( -0.651671  -0.051070  -0.107613)
  28:       283.64    0.514516  ( -0.530378   0.113766   0.469331)
  29:       291.62    0.016612  (  0.024669   0.114230   0.054361)
  30:       299.83    0.188403  ( -0.202595  -0.379226   0.059544)
  31:       305.10    0.181635  (  0.325990  -0.242575   0.128541)
  32:       317.83    0.157175  ( -0.012150   0.246665  -0.310135)
  33:       330.83    0.265505  (  0.007493   0.260097   0.444745)
  34:       344.98    0.462539  ( -0.119405   0.667979  -0.045671)
  35:       363.64    0.683011  (  0.770845   0.213886   0.207511)
  36:       367.91    0.995911  ( -0.431258  -0.643304   0.629355)
  37:       376.31    0.662787  ( -0.038643  -0.809911  -0.073059)
  38:       379.72    2.854895  (  0.721475   0.012065   1.527817)
  39:       394.73    3.670402  (  1.096439  -1.552025   0.243810)
  40:       410.41    2.896213  (  1.637658   0.314781  -0.339416)
  41:       423.82    1.449769  (  0.306680   0.709558   0.923170)
  42:       433.27    0.222482  (  0.354403   0.161529  -0.266062)
  43:       435.31   11.236998  (  0.472030  -1.325823  -3.042430)
  44:       449.84    8.704752  (  0.201366   2.410819  -1.688833)
  45:       468.47    4.325711  ( -2.052762  -0.019995   0.333887)
  46:       472.36   31.770667  ( -2.612322  -4.872701   1.096917)
  47:       476.09   39.718474  ( -5.523197   2.487024  -1.739965)
  48:       487.31   18.892035  ( -0.473549   2.224556   3.703936)
  49:       496.58    2.114591  (  1.377388  -0.361593  -0.294353)
  50:       509.06   12.573559  ( -0.802777   0.074833   3.453043)
  51:       514.08    2.986877  ( -0.053643   1.697860   0.318231)
  52:       517.43    1.626755  (  1.030113   0.336549   0.672574)
  53:       566.63    6.081739  ( -0.074315   0.538547  -2.405449)
  54:       586.84   12.566302  (  2.326201  -2.302261   1.361868)
  55:       607.05   13.340339  ( -1.593063  -3.179137  -0.834011)
  56:       682.33   17.994113  ( -1.579526   1.016165   3.803501)
  57:       787.05    0.164381  ( -0.285313   0.006442  -0.287986)
  58:       834.17    9.365508  ( -0.038697   3.036780   0.376802)
  59:       836.57    5.681290  ( -1.806089  -1.411124  -0.654265)
  60:       839.53    7.616510  (  2.595763  -0.736723  -0.579452)
  61:       865.82    4.847013  ( -1.278440   1.520677   0.948760)
  62:       898.37    1.178634  (  1.081405  -0.084627   0.045114)
  63:       909.69    4.110880  (  0.991038  -1.698998   0.492069)
  64:       935.35    0.274888  (  0.422268   0.074901   0.301608)
  65:       942.35    0.988957  (  0.675352  -0.729294  -0.031406)
  66:       946.07    0.946217  ( -0.225436   0.601309   0.730632)
  67:       948.14    1.537707  (  0.242583   0.117820  -1.210363)
  68:       954.05    0.307707  ( -0.439686  -0.308021  -0.139666)
  69:       955.79    0.580016  ( -0.292589  -0.611532  -0.347039)
  70:       957.55    2.940358  ( -0.960774   1.209029  -0.745332)
  71:      1015.37    0.757485  (  0.851753  -0.165124   0.068825)
  72:      1026.01    2.067442  (  0.009982  -0.386720   1.384843)
  73:      1026.50    0.896920  (  0.460791   0.035446  -0.826641)
  74:      1030.56    3.545513  ( -0.528447   1.520829   0.976389)
  75:      1032.92   15.427359  (  0.495408   0.793375  -3.814772)
  76:      1062.29    0.615480  ( -0.215360   0.654160   0.375732)
  77:      1070.16    1.086346  (  0.820013   0.360105  -0.533151)
  78:      1110.43    3.423569  ( -0.683060   1.003908   1.396126)
  79:      1120.05    1.003299  ( -0.830325   0.539669   0.150392)
  80:      1139.04    1.888642  ( -1.222613   0.463730   0.422863)
  81:      1164.79    2.294347  (  1.074766   0.268270   1.033081)
  82:      1189.14   23.441043  ( -4.541250  -1.650570   0.306123)
  83:      1194.06   15.912879  ( -0.746188   3.423406   1.906928)
  84:      1214.09    0.320375  (  0.393901   0.379912  -0.144513)
  85:      1228.99    0.644890  ( -0.323879   0.544181   0.493821)
  86:      1234.60    3.238759  (  0.344575  -0.687973  -1.626874)
  87:      1236.90    0.064619  (  0.167635   0.042758  -0.186250)
  88:      1238.93    4.186909  (  0.702193  -0.385329  -1.882912)
  89:      1287.43    0.484211  (  0.481272  -0.305958   0.398721)
  90:      1295.94    4.570678  (  0.749632  -0.078987   2.000623)
  91:      1304.16    3.541363  ( -0.366364   0.605359  -1.743755)
  92:      1318.24    5.552439  (  2.034263   0.943283  -0.724176)
  93:      1338.21    0.785182  ( -0.384560  -0.508936  -0.615044)
  94:      1369.16    1.660050  (  0.989130   0.699004  -0.439392)
  95:      1373.97    1.905541  (  0.252571  -0.731722   1.142949)
  96:      1375.62    6.724233  (  0.642893  -0.851069   2.363600)
  97:      1376.41    6.427182  ( -1.388487  -0.195255   2.112146)
  98:      1379.58    3.147579  (  0.078379   1.767818  -0.127502)
  99:      1382.83    4.372656  (  0.189407   1.174773  -1.719503)
 100:      1390.64    0.347015  (  0.523370  -0.265179   0.052709)
 101:      1394.52    0.415057  (  0.183118   0.438608  -0.434911)
 102:      1399.41   19.597198  ( -3.482458  -2.733004  -0.019254)
 103:      1408.21   16.216705  ( -2.275447   3.308263  -0.307316)
 104:      1438.90    2.495039  (  1.393913   0.523126   0.527623)
 105:      1444.22    1.049312  ( -0.432931  -0.587543  -0.718802)
 106:      1448.72    0.545206  (  0.302014  -0.411276  -0.533709)
 107:      1451.49    0.356695  (  0.592914   0.018997   0.069185)
 108:      1455.38    3.415545  ( -0.230091   1.234689  -1.355783)
 109:      1456.88    6.550058  (  1.092152   1.923544   1.287338)
 110:      1457.58    1.992848  (  0.036229   1.333295  -0.462450)
 111:      1459.26    6.334665  ( -1.923856  -1.191005   1.102248)
 112:      1461.91    5.412816  (  1.537706  -0.773030  -1.565471)
 113:      1468.75    2.108418  ( -1.364730  -0.409922   0.279095)
 114:      1469.92    4.884671  (  0.514576   0.285300   2.130372)
 115:      1475.64    6.770909  ( -0.100837   1.936746  -1.734865)
 116:      1475.70    2.576780  (  1.066462  -1.194459   0.112729)
 117:      1481.67   17.212033  ( -3.715392  -1.030067  -1.531945)
 118:      1486.07    5.169524  (  0.548143   1.640020   1.476279)
 119:      1496.81   16.714194  (  3.090561   1.051587  -2.461055)
 120:      1499.93    6.827296  ( -0.146578   2.548557  -0.557377)
 121:      2117.62  955.216472  ( 23.378308 -16.878710  11.125661)
 122:      2123.37  841.881066  (-17.768158 -22.769021   2.783038)
 123:      2182.35  381.162407  (  3.568667  -6.543592 -18.044623)
 124:      3035.37   15.831721  ( -0.598125   0.300886  -3.922172)
 125:      3039.99   22.650397  (  2.763522  -3.305307   2.021952)
 126:      3042.11   56.752238  (  0.684431   4.615465  -5.914497)
 127:      3050.06    6.994486  (  0.965239   0.127131  -2.458991)
 128:      3052.86   30.107238  ( -0.740859  -3.788415  -3.899523)
 129:      3053.33   14.065356  ( -1.933793  -2.011680   2.505782)
 130:      3056.88   45.375580  (  6.591010  -1.015078  -0.950677)
 131:      3064.47   13.723262  (  3.549840   0.515179   0.925468)
 132:      3065.99   13.956581  (  3.249598   1.842742   0.031523)
 133:      3068.20   44.322644  ( -1.964776  -6.360699   0.061685)
 134:      3076.30   14.768601  ( -0.765979  -3.468110  -1.467683)
 135:      3108.43   30.808959  ( -4.230999   3.254399   1.522003)
 136:      3116.32    2.891681  ( -0.885667   0.850654   1.176292)
 137:      3120.13   27.189363  ( -2.094100   0.535350  -4.745262)
 138:      3134.54   15.771965  (  3.533459  -0.515694   1.738014)
 139:      3135.87   17.479807  (  1.661926   3.166698  -2.165603)
 140:      3139.48   20.039458  (  2.209634   3.737893  -1.088639)
 141:      3141.68    8.124181  ( -1.654846  -2.265908   0.501325)
 142:      3144.06   37.948919  (  5.985513  -0.546568   1.350487)
 143:      3148.28   20.578226  (  0.776636   4.350845   1.022354)
 144:      3152.91    7.720026  (  1.409769  -0.753314  -2.272684)
 145:      3156.07    1.969948  ( -0.984771  -0.619170  -0.785368)
 146:      3158.31   11.140133  (  0.633272   2.068921   2.541391)
 147:      3167.50    9.051178  ( -2.299357  -1.124223  -1.581220)
 148:      3170.96   11.015628  (  1.435982  -2.892137   0.767545)
 149:      3181.45    9.741743  (  0.253465   2.027863   2.359083)
 150:      3186.10    7.039833  ( -0.233181   2.167580  -1.512302)
 151:      3219.24    9.101130  (  2.121554  -1.926562  -0.942603)
 152:      3233.45    2.583613  ( -1.036026   0.840281  -0.896766)

--------------------------
THERMOCHEMISTRY AT 298.15K
--------------------------

Temperature         ... 298.15 K
Pressure            ... 1.00 atm
Total Mass          ... 371.09 AMU

Throughout the following assumptions are being made:
  (1) The electronic state is orbitally nondegenerate
  (2) There are no thermally accessible electronically excited states
  (3) Hindered rotations indicated by low frequency modes are not
      treated as such but are treated as vibrations and this may
      cause some error
  (4) All equations used are the standard statistical mechanics
      equations for an ideal gas
  (5) All vibrations are strictly harmonic

freq.      27.15  E(vib)   ...       0.55
freq.      39.94  E(vib)   ...       0.54
freq.      60.76  E(vib)   ...       0.51
freq.      66.43  E(vib)   ...       0.50
freq.      68.80  E(vib)   ...       0.50
freq.      78.35  E(vib)   ...       0.49
freq.      79.64  E(vib)   ...       0.49
freq.      85.50  E(vib)   ...       0.48
freq.      93.66  E(vib)   ...       0.47
freq.     102.36  E(vib)   ...       0.46
freq.     120.77  E(vib)   ...       0.44
freq.     147.58  E(vib)   ...       0.41
freq.     151.71  E(vib)   ...       0.40
freq.     157.49  E(vib)   ...       0.40
freq.     179.44  E(vib)   ...       0.37
freq.     195.16  E(vib)   ...       0.36
freq.     222.21  E(vib)   ...       0.33
freq.     233.13  E(vib)   ...       0.32
freq.     234.67  E(vib)   ...       0.32
freq.     246.56  E(vib)   ...       0.31
freq.     264.89  E(vib)   ...       0.29
freq.     270.30  E(vib)   ...       0.29
freq.     283.64  E(vib)   ...       0.28
freq.     291.62  E(vib)   ...       0.27
freq.     299.83  E(vib)   ...       0.26
freq.     305.10  E(vib)   ...       0.26
freq.     317.83  E(vib)   ...       0.25
freq.     330.83  E(vib)   ...       0.24
freq.     344.98  E(vib)   ...       0.23
freq.     363.64  E(vib)   ...       0.22
freq.     367.91  E(vib)   ...       0.21
freq.     376.31  E(vib)   ...       0.21
freq.     379.72  E(vib)   ...       0.21
freq.     394.73  E(vib)   ...       0.20
freq.     410.41  E(vib)   ...       0.19
freq.     423.82  E(vib)   ...       0.18
freq.     433.27  E(vib)   ...       0.17
freq.     435.31  E(vib)   ...       0.17
freq.     449.84  E(vib)   ...       0.17
freq.     468.47  E(vib)   ...       0.16
freq.     472.36  E(vib)   ...       0.15
freq.     476.09  E(vib)   ...       0.15
freq.     487.31  E(vib)   ...       0.15
freq.     496.58  E(vib)   ...       0.14
freq.     509.06  E(vib)   ...       0.14
freq.     514.08  E(vib)   ...       0.13
freq.     517.43  E(vib)   ...       0.13
freq.     566.63  E(vib)   ...       0.11
freq.     586.84  E(vib)   ...       0.11
freq.     607.05  E(vib)   ...       0.10
freq.     682.33  E(vib)   ...       0.08
freq.     787.05  E(vib)   ...       0.05
freq.     834.17  E(vib)   ...       0.04
freq.     836.57  E(vib)   ...       0.04
freq.     839.53  E(vib)   ...       0.04
freq.     865.82  E(vib)   ...       0.04
freq.     898.37  E(vib)   ...       0.03
freq.     909.69  E(vib)   ...       0.03
freq.     935.35  E(vib)   ...       0.03
freq.     942.35  E(vib)   ...       0.03
freq.     946.07  E(vib)   ...       0.03
freq.     948.14  E(vib)   ...       0.03
freq.     954.05  E(vib)   ...       0.03
freq.     955.79  E(vib)   ...       0.03
freq.     957.55  E(vib)   ...       0.03
freq.    1015.37  E(vib)   ...       0.02
freq.    1026.01  E(vib)   ...       0.02
freq.    1026.50  E(vib)   ...       0.02
freq.    1030.56  E(vib)   ...       0.02
freq.    1032.92  E(vib)   ...       0.02
freq.    1062.29  E(vib)   ...       0.02
freq.    1070.16  E(vib)   ...       0.02
freq.    1110.43  E(vib)   ...       0.02
freq.    1120.05  E(vib)   ...       0.01
freq.    1139.04  E(vib)   ...       0.01
freq.    1164.79  E(vib)   ...       0.01
freq.    1189.14  E(vib)   ...       0.01
freq.    1194.06  E(vib)   ...       0.01
freq.    1214.09  E(vib)   ...       0.01
freq.    1228.99  E(vib)   ...       0.01
freq.    1234.60  E(vib)   ...       0.01
freq.    1236.90  E(vib)   ...       0.01
freq.    1238.93  E(vib)   ...       0.01
freq.    1287.43  E(vib)   ...       0.01
freq.    1295.94  E(vib)   ...       0.01
freq.    1304.16  E(vib)   ...       0.01
freq.    1318.24  E(vib)   ...       0.01
freq.    1338.21  E(vib)   ...       0.01
freq.    1369.16  E(vib)   ...       0.01
freq.    1373.97  E(vib)   ...       0.01
freq.    1375.62  E(vib)   ...       0.01
freq.    1376.41  E(vib)   ...       0.01
freq.    1379.58  E(vib)   ...       0.01
freq.    1382.83  E(vib)   ...       0.01
freq.    1390.64  E(vib)   ...       0.00
freq.    1394.52  E(vib)   ...       0.00
freq.    1399.41  E(vib)   ...       0.00
freq.    1408.21  E(vib)   ...       0.00
freq.    1438.90  E(vib)   ...       0.00
freq.    1444.22  E(vib)   ...       0.00
freq.    1448.72  E(vib)   ...       0.00
freq.    1451.49  E(vib)   ...       0.00
freq.    1455.38  E(vib)   ...       0.00
freq.    1456.88  E(vib)   ...       0.00
freq.    1457.58  E(vib)   ...       0.00
freq.    1459.26  E(vib)   ...       0.00
freq.    1461.91  E(vib)   ...       0.00
freq.    1468.75  E(vib)   ...       0.00
freq.    1469.92  E(vib)   ...       0.00
freq.    1475.64  E(vib)   ...       0.00
freq.    1475.70  E(vib)   ...       0.00
freq.    1481.67  E(vib)   ...       0.00
freq.    1486.07  E(vib)   ...       0.00
freq.    1496.81  E(vib)   ...       0.00
freq.    1499.93  E(vib)   ...       0.00
freq.    2117.62  E(vib)   ...       0.00
freq.    2123.37  E(vib)   ...       0.00
freq.    2182.35  E(vib)   ...       0.00
freq.    3035.37  E(vib)   ...       0.00
freq.    3039.99  E(vib)   ...       0.00
freq.    3042.11  E(vib)   ...       0.00
freq.    3050.06  E(vib)   ...       0.00
freq.    3052.86  E(vib)   ...       0.00
freq.    3053.33  E(vib)   ...       0.00
freq.    3056.88  E(vib)   ...       0.00
freq.    3064.47  E(vib)   ...       0.00
freq.    3065.99  E(vib)   ...       0.00
freq.    3068.20  E(vib)   ...       0.00
freq.    3076.30  E(vib)   ...       0.00
freq.    3108.43  E(vib)   ...       0.00
freq.    3116.32  E(vib)   ...       0.00
freq.    3120.13  E(vib)   ...       0.00
freq.    3134.54  E(vib)   ...       0.00
freq.    3135.87  E(vib)   ...       0.00
freq.    3139.48  E(vib)   ...       0.00
freq.    3141.68  E(vib)   ...       0.00
freq.    3144.06  E(vib)   ...       0.00
freq.    3148.28  E(vib)   ...       0.00
freq.    3152.91  E(vib)   ...       0.00
freq.    3156.07  E(vib)   ...       0.00
freq.    3158.31  E(vib)   ...       0.00
freq.    3167.50  E(vib)   ...       0.00
freq.    3170.96  E(vib)   ...       0.00
freq.    3181.45  E(vib)   ...       0.00

Rotational constants in cm-1:     0.008749     0.008285     0.007132

                             ****ORCA TERMINATED NORMALLY****
TOTAL RUN TIME: 0 days 3 hours 11 minutes 9 seconds 296 msec
